 Entering Gaussian System, Link 0=/data/szalewicgrp/connornm/opt/Gaussian/g09-M05-par/g09/g09
 AtFile(1): aug-cc-pVTZ.gbs
 Initial command:
 /data/szalewicgrp/connornm/opt/Gaussian/g09-M05-par/g09/l1.exe "/scratch/local/Gau-4567.inp" -scrdir="/scratch/local/"
 Entering Link 1 = /data/szalewicgrp/connornm/opt/Gaussian/g09-M05-par/g09/l1.exe PID=      4568.
  
 Copyright (c) 1988,1990,1992,1993,1995,1998,2003,2009,2013,
            Gaussian, Inc.  All Rights Reserved.
  
 This is part of the Gaussian(R) 09 program.  It is based on
 the Gaussian(R) 03 system (copyright 2003, Gaussian, Inc.),
 the Gaussian(R) 98 system (copyright 1998, Gaussian, Inc.),
 the Gaussian(R) 94 system (copyright 1995, Gaussian, Inc.),
 the Gaussian 92(TM) system (copyright 1992, Gaussian, Inc.),
 the Gaussian 90(TM) system (copyright 1990, Gaussian, Inc.),
 the Gaussian 88(TM) system (copyright 1988, Gaussian, Inc.),
 the Gaussian 86(TM) system (copyright 1986, Carnegie Mellon
 University), and the Gaussian 82(TM) system (copyright 1983,
 Carnegie Mellon University). Gaussian is a federally registered
 trademark of Gaussian, Inc.
  
 This software contains proprietary and confidential information,
 including trade secrets, belonging to Gaussian, Inc.
  
 This software is provided under written license and may be
 used, copied, transmitted, or stored only in accord with that
 written license.
  
 The following legend is applicable only to US Government
 contracts under FAR:
  
                    RESTRICTED RIGHTS LEGEND
  
 Use, reproduction and disclosure by the US Government is
 subject to restrictions as set forth in subparagraphs (a)
 and (c) of the Commercial Computer Software - Restricted
 Rights clause in FAR 52.227-19.
  
 Gaussian, Inc.
 340 Quinnipiac St., Bldg. 40, Wallingford CT 06492
  
  
 ---------------------------------------------------------------
 Warning -- This program may not be used in any manner that
 competes with the business of Gaussian, Inc. or will provide
 assistance to any competitor of Gaussian, Inc.  The licensee
 of this program is prohibited from giving any competitor of
 Gaussian, Inc. access to this program.  By using this program,
 the user acknowledges that Gaussian, Inc. is engaged in the
 business of creating and licensing software in the field of
 computational chemistry and represents and warrants to the
 licensee that it is not a competitor of Gaussian, Inc. and that
 it will not use this program in any manner prohibited above.
 ---------------------------------------------------------------
  

 Cite this work as:
 Gaussian 09, Revision D.01,
 M. J. Frisch, G. W. Trucks, H. B. Schlegel, G. E. Scuseria, 
 M. A. Robb, J. R. Cheeseman, G. Scalmani, V. Barone, B. Mennucci, 
 G. A. Petersson, H. Nakatsuji, M. Caricato, X. Li, H. P. Hratchian, 
 A. F. Izmaylov, J. Bloino, G. Zheng, J. L. Sonnenberg, M. Hada, 
 M. Ehara, K. Toyota, R. Fukuda, J. Hasegawa, M. Ishida, T. Nakajima, 
 Y. Honda, O. Kitao, H. Nakai, T. Vreven, J. A. Montgomery, Jr., 
 J. E. Peralta, F. Ogliaro, M. Bearpark, J. J. Heyd, E. Brothers, 
 K. N. Kudin, V. N. Staroverov, T. Keith, R. Kobayashi, J. Normand, 
 K. Raghavachari, A. Rendell, J. C. Burant, S. S. Iyengar, J. Tomasi, 
 M. Cossi, N. Rega, J. M. Millam, M. Klene, J. E. Knox, J. B. Cross, 
 V. Bakken, C. Adamo, J. Jaramillo, R. Gomperts, R. E. Stratmann, 
 O. Yazyev, A. J. Austin, R. Cammi, C. Pomelli, J. W. Ochterski, 
 R. L. Martin, K. Morokuma, V. G. Zakrzewski, G. A. Voth, 
 P. Salvador, J. J. Dannenberg, S. Dapprich, A. D. Daniels, 
 O. Farkas, J. B. Foresman, J. V. Ortiz, J. Cioslowski, 
 and D. J. Fox, Gaussian, Inc., Wallingford CT, 2013.
 
 ******************************************
 Gaussian 09:  AS64L-G09RevD.01 24-Apr-2013
                 1-Dec-2018 
 ******************************************
 %Chk=BLIND01956
 %Mem=2GB
 %NProcShared=16
 Will use up to   16 processors via shared memory.
 -----------------------------------------------------------
 #T M05/Gen test Massage Symmetry=None SCF=(tight,maxcyc=80)
 -----------------------------------------------------------
 -------
 M05 opt
 -------
 Symbolic Z-matrix:
 Charge =  0 Multiplicity = 1
 6                     0.64399  -0.20274  -0.76503 
 6                     0.43234  -1.30385   0.11165 
 16                    0.58283   1.49011  -0.297 
 16                    0.03681  -1.14264   1.82983 
 6                    -0.65141   1.42827   0.9746 
 6                    -0.86457   0.38325   1.8173 
 6                     0.97492  -0.66723  -2.02203 
 7                     0.57417  -2.50757  -0.38717 
 16                    1.017    -2.39983  -1.98817 
 6                    -1.40799   2.63151   1.07889 
 7                    -1.98157   3.64063   1.14114 
 6                    -1.85573   0.45415   2.84029 
 7                    -2.63122   0.47891   3.7057 
 6                     1.27662   0.08227  -3.18496 
 7                     1.53591   0.68147  -4.14663 
 6                    -0.51856   0.29645   12.64098 
 6                    -1.32241  -0.35906   13.61565 
 16                    0.90736   1.26302   12.98885 
 16                   -0.99259  -0.33223   15.35493 
 6                     1.53206   0.41385   14.41461 
 6                     0.77593  -0.21667   15.35182 
 6                    -1.06957   0.1171    11.38818 
 7                    -2.38918  -0.99121   13.1911 
 16                   -2.52522  -0.8115    11.54182 
 6                     2.95067   0.48485   14.53111 
 7                     4.10648   0.5903    14.59578 
 6                     1.37717  -0.83097   16.48984 
 7                     1.82123  -1.31895   17.44671 
 6                    -0.60259   0.60639   10.14412 
 7                    -0.23895   1.00748   9.11553 
 
                    Distance matrix (angstroms):
                    1          2          3          4          5
     1  C    0.000000
     2  C    1.423315   0.000000
     3  S    1.757418   2.827694   0.000000
     4  S    2.825849   1.770477   3.428253   0.000000
     5  C    2.713774   3.063280   1.773167   2.795470   0.000000
     6  C    3.047557   2.727187   2.791121   1.772288   1.359281
     7  C    1.380327   2.291783   2.789903   3.992857   4.001979
     8  N    2.336642   1.310672   3.998700   2.658358   4.341342
     9  S    2.542129   2.439721   4.263822   4.137445   5.120151
    10  C    3.955208   4.450782   2.675676   4.110426   1.425163
    11  N    5.029770   5.597745   3.642685   5.237162   2.586817
    12  C    4.436049   3.971317   4.106384   2.674416   2.424897
    13  N    5.583831   5.047859   5.232040   3.642352   3.504263
    14  C    2.517432   3.674472   3.286888   5.309014   4.778168
    15  N    3.607292   4.826214   4.047461   6.425950   5.618639
    16  C   13.465589  12.666867  13.039530  10.920645  11.721911
    17  C   14.515345  13.650270  14.163726  11.889785  12.784401
    18  S   13.834279  13.139140  13.291758  11.448532  12.116079
    19  S   16.203343  15.340537  15.836214  13.588402  14.491707
    20  C   15.218098  14.447655  14.781438  12.768522  13.653955
    21  C   16.117396  15.282761  15.742803  13.573791  14.541233
    22  C   12.277590  11.464512  11.881036   9.704281  10.504127
    23  N   14.303689  13.383975  14.032768  11.618381  12.574442
    24  S   12.722943  11.816874  12.454522  10.049699  10.963301
    25  C   15.484367  14.746608  15.049589  13.132474  14.058592
    26  N   15.766173  15.062442  15.330381  13.510539  14.452548
    27  C   17.281862  16.412234  16.965148  14.724451  15.809549
    28  N   18.283861  17.390624  18.007327  15.719487  16.881696
    29  C   11.009916  10.265017  10.545289   8.520287   9.206408
    30  N    9.993491   9.320027   9.460658   7.601353   8.162229
                    6          7          8          9         10
     6  C    0.000000
     7  C    4.384939   0.000000
     8  N    3.909794   2.494036   0.000000
     9  S    5.076167   1.733444   1.664607   0.000000
    10  C    2.428007   5.116215   5.699860   6.371958   0.000000
    11  N    3.509330   6.107712   6.831389   7.434461   1.162408
    12  C    1.426163   5.736923   5.009263   6.301738   2.836178
    13  N    2.587713   6.864751   5.995430   7.349618   3.609722
    14  C    5.449573   1.416040   3.876636   2.767765   5.646781
    15  N    6.435818   2.578302   5.022796   3.797715   6.306769
    16  C   10.829564  14.770349  13.371217  14.954604  11.829016
    17  C   11.830542  15.808533  14.293078  15.909647  12.888799
    18  S   11.345370  15.134634  13.901310  15.418816  12.209868
    19  S   13.557127  17.491197  15.968734  17.581142  14.586349
    20  C   12.823303  16.481577  15.117706  16.650330  13.834861
    21  C   13.646770  17.380827  15.906119  17.478545  14.717271
    22  C    9.576776  13.587821  12.175781  13.770096  10.616885
    23  N   11.557548  15.584013  13.980351  15.620391  12.680395
    24  S    9.937383  14.008924  12.441212  14.075899  11.071382
    25  C   13.274317  16.710399  15.399919  16.880381  14.302740
    26  N   13.712905  16.956992  15.702315  17.132225  14.740495
    27  C   14.892384  18.516961  16.979080  18.547989  16.038802
    28  N   15.949597  19.498026  17.916903  19.481528  17.144668
    29  C    8.333928  12.333929  11.044886  12.603686   9.323528
    30  N    7.351552  11.327996  10.164554  11.682445   8.282014
                   11         12         13         14         15
    11  N    0.000000
    12  C    3.613393   0.000000
    13  N    4.122555   1.162293   0.000000
    14  C    6.480188   6.800997   7.931563   0.000000
    15  N    7.006418   7.769948   8.891861   1.162367   0.000000
    16  C   12.065253   9.892746   9.183461  15.928872  16.917247
    17  C   13.116606  10.819150  10.031067  17.006176  18.020860
    18  S   12.424462  10.549038   9.965608  16.221057  17.156872
    19  S   14.791668  12.568988  11.791844  18.682836  19.690906
    20  C   14.104706  12.059999  11.489906  17.604545  18.563176
    21  C   14.980850  12.802883  12.154198  18.545942  19.533914
    22  C   10.874227   8.590576   7.847940  14.760831  15.761901
    23  N   12.915942  10.464836   9.601700  16.815636  17.855005
    24  S   11.326571   8.818542   7.942369  15.235841  16.274197
    25  C   14.614283  12.640319  12.179784  17.799538  18.732281
    26  N   15.079660  13.181725  12.806359  18.011680  18.918088
    27  C   16.335813  14.085921  13.461692  19.696232  20.692428
    28  N   17.462257  15.166127  14.555827  20.686368  21.687687
    29  C    9.600096   7.412111   6.751655  13.471092  14.450066
    30  N    8.576778   6.503752   5.938742  12.427993  13.384376
                   16         17         18         19         20
    16  C    0.000000
    17  C    1.423315   0.000000
    18  S    1.757418   2.827694   0.000000
    19  S    2.825849   1.770477   3.428253   0.000000
    20  C    2.713774   3.063280   1.773167   2.795470   0.000000
    21  C    3.047557   2.727187   2.791121   1.772288   1.359281
    22  C    1.380327   2.291783   2.789903   3.992857   4.001979
    23  N    2.336642   1.310672   3.998700   2.658358   4.341342
    24  S    2.542129   2.439721   4.263822   4.137445   5.120151
    25  C    3.955208   4.450782   2.675676   4.110426   1.425163
    26  N    5.029770   5.597745   3.642685   5.237162   2.586817
    27  C    4.436049   3.971317   4.106384   2.674416   2.424897
    28  N    5.583831   5.047859   5.232040   3.642352   3.504263
    29  C    2.517432   3.674472   3.286888   5.309014   4.778168
    30  N    3.607292   4.826214   4.047461   6.425950   5.618639
                   21         22         23         24         25
    21  C    0.000000
    22  C    4.384939   0.000000
    23  N    3.909794   2.494036   0.000000
    24  S    5.076167   1.733444   1.664607   0.000000
    25  C    2.428007   5.116215   5.699860   6.371958   0.000000
    26  N    3.509330   6.107712   6.831389   7.434461   1.162408
    27  C    1.426163   5.736923   5.009263   6.301738   2.836178
    28  N    2.587713   6.864751   5.995430   7.349618   3.609722
    29  C    5.449573   1.416040   3.876636   2.767765   5.646781
    30  N    6.435818   2.578302   5.022796   3.797715   6.306769
                   26         27         28         29         30
    26  N    0.000000
    27  C    3.613393   0.000000
    28  N    4.122555   1.162293   0.000000
    29  C    6.480188   6.800997   7.931563   0.000000
    30  N    7.006418   7.769948   8.891861   1.162367   0.000000
 Symmetry turned off by external request.
 Rotational constants (GHZ):      0.2462090      0.0198440      0.0195526
  1404 basis functions,  2412 primitive gaussians,  1674 cartesian basis functions
   124 alpha electrons      124 beta electrons
       nuclear repulsion energy      2953.4463843751 Hartrees.
 IMHF & INEx in M05                 6345064                -5345064
 NAtoms=   30 NActive=   30 NUniq=   30 SFac= 1.00D+00 NAtFMM=   60 NAOKFM=F Big=F
 ExpMin= 3.51D-02 ExpMax= 3.74D+05 ExpMxC= 1.18D+03 IAcc=3 IRadAn=         5 AccDes= 0.00D+00
 Harris functional with IExCor= 1009 and IRadAn=       5 diagonalized for initial guess.
 HarFok:  IExCor= 1009 AccDes= 0.00D+00 IRadAn=         5 IDoV= 1 UseB2=F ITyADJ=14
 ICtDFT=  3500011 ScaDFX=  1.000000  1.000000  1.000000  1.000000
 FoFCou: FMM=F IPFlag=           0 FMFlag=      100000 FMFlg1=           0
         NFxFlg=           0 DoJE=T BraDBF=F KetDBF=T FulRan=T
         wScrn=  0.000000 ICntrl=     500 IOpCl=  0 I1Cent=   200000004 NGrid=           0
         NMat0=    1 NMatS0=      1 NMatT0=    0 NMatD0=    1 NMtDS0=    0 NMtDT0=    0
 Symmetry not used in FoFCou.
