 Entering Gaussian System, Link 0=/data/szalewicgrp/connornm/opt/Gaussian/g09-M05-par/g09/g09
 AtFile(1): aug-cc-pVTZ.gbs
 Initial command:
 /data/szalewicgrp/connornm/opt/Gaussian/g09-M05-par/g09/l1.exe "/scratch/local/Gau-32952.inp" -scrdir="/scratch/local/"
 Entering Link 1 = /data/szalewicgrp/connornm/opt/Gaussian/g09-M05-par/g09/l1.exe PID=     32953.
  
 Copyright (c) 1988,1990,1992,1993,1995,1998,2003,2009,2013,
            Gaussian, Inc.  All Rights Reserved.
  
 This is part of the Gaussian(R) 09 program.  It is based on
 the Gaussian(R) 03 system (copyright 2003, Gaussian, Inc.),
 the Gaussian(R) 98 system (copyright 1998, Gaussian, Inc.),
 the Gaussian(R) 94 system (copyright 1995, Gaussian, Inc.),
 the Gaussian 92(TM) system (copyright 1992, Gaussian, Inc.),
 the Gaussian 90(TM) system (copyright 1990, Gaussian, Inc.),
 the Gaussian 88(TM) system (copyright 1988, Gaussian, Inc.),
 the Gaussian 86(TM) system (copyright 1986, Carnegie Mellon
 University), and the Gaussian 82(TM) system (copyright 1983,
 Carnegie Mellon University). Gaussian is a federally registered
 trademark of Gaussian, Inc.
  
 This software contains proprietary and confidential information,
 including trade secrets, belonging to Gaussian, Inc.
  
 This software is provided under written license and may be
 used, copied, transmitted, or stored only in accord with that
 written license.
  
 The following legend is applicable only to US Government
 contracts under FAR:
  
                    RESTRICTED RIGHTS LEGEND
  
 Use, reproduction and disclosure by the US Government is
 subject to restrictions as set forth in subparagraphs (a)
 and (c) of the Commercial Computer Software - Restricted
 Rights clause in FAR 52.227-19.
  
 Gaussian, Inc.
 340 Quinnipiac St., Bldg. 40, Wallingford CT 06492
  
  
 ---------------------------------------------------------------
 Warning -- This program may not be used in any manner that
 competes with the business of Gaussian, Inc. or will provide
 assistance to any competitor of Gaussian, Inc.  The licensee
 of this program is prohibited from giving any competitor of
 Gaussian, Inc. access to this program.  By using this program,
 the user acknowledges that Gaussian, Inc. is engaged in the
 business of creating and licensing software in the field of
 computational chemistry and represents and warrants to the
 licensee that it is not a competitor of Gaussian, Inc. and that
 it will not use this program in any manner prohibited above.
 ---------------------------------------------------------------
  

 Cite this work as:
 Gaussian 09, Revision D.01,
 M. J. Frisch, G. W. Trucks, H. B. Schlegel, G. E. Scuseria, 
 M. A. Robb, J. R. Cheeseman, G. Scalmani, V. Barone, B. Mennucci, 
 G. A. Petersson, H. Nakatsuji, M. Caricato, X. Li, H. P. Hratchian, 
 A. F. Izmaylov, J. Bloino, G. Zheng, J. L. Sonnenberg, M. Hada, 
 M. Ehara, K. Toyota, R. Fukuda, J. Hasegawa, M. Ishida, T. Nakajima, 
 Y. Honda, O. Kitao, H. Nakai, T. Vreven, J. A. Montgomery, Jr., 
 J. E. Peralta, F. Ogliaro, M. Bearpark, J. J. Heyd, E. Brothers, 
 K. N. Kudin, V. N. Staroverov, T. Keith, R. Kobayashi, J. Normand, 
 K. Raghavachari, A. Rendell, J. C. Burant, S. S. Iyengar, J. Tomasi, 
 M. Cossi, N. Rega, J. M. Millam, M. Klene, J. E. Knox, J. B. Cross, 
 V. Bakken, C. Adamo, J. Jaramillo, R. Gomperts, R. E. Stratmann, 
 O. Yazyev, A. J. Austin, R. Cammi, C. Pomelli, J. W. Ochterski, 
 R. L. Martin, K. Morokuma, V. G. Zakrzewski, G. A. Voth, 
 P. Salvador, J. J. Dannenberg, S. Dapprich, A. D. Daniels, 
 O. Farkas, J. B. Foresman, J. V. Ortiz, J. Cioslowski, 
 and D. J. Fox, Gaussian, Inc., Wallingford CT, 2013.
 
 ******************************************
 Gaussian 09:  AS64L-G09RevD.01 24-Apr-2013
                 1-Dec-2018 
 ******************************************
 %Chk=BLIND01682
 %Mem=2GB
 %NProcShared=16
 Will use up to   16 processors via shared memory.
 -----------------------------------------------------------
 #T M05/Gen test Massage Symmetry=None SCF=(tight,maxcyc=80)
 -----------------------------------------------------------
 -------
 M05 opt
 -------
 Symbolic Z-matrix:
 Charge =  0 Multiplicity = 1
 6                     0.02305   0.65275   0.7839 
 6                    -0.76689   1.10192  -0.31158 
 16                    0.26962  -1.02863   1.23188 
 16                   -1.61309   0.02413  -1.4327 
 6                     0.21809  -1.7982   -0.36475 
 6                    -0.53058  -1.37908  -1.41901 
 6                     0.50746   1.73973   1.48327 
 7                    -0.89591   2.39643  -0.47108 
 16                   -0.07766   3.19251   0.74038 
 6                     1.02525  -2.96985  -0.44738 
 7                     1.6784   -3.93134  -0.45891 
 6                    -0.53604  -2.09995  -2.64956 
 7                    -0.59369  -2.67164  -3.65989 
 6                     1.3221    1.74787   2.64149 
 7                     1.98284   1.77332   3.59746 
 6                     0.01928  -0.65287   6.6736 
 6                    -0.77324  -1.09747   7.76908 
 16                    0.27556   1.02706   6.22562 
 16                   -1.6132   -0.01482   8.8902 
 6                     0.22847   1.79691   7.82225 
 6                    -0.52261   1.38212   8.87651 
 6                     0.49741  -1.74263   5.97423 
 7                    -0.90974  -2.39122   7.92858 
 16                   -0.09609  -3.19201   6.71712 
 6                     1.04238   2.96388   7.90488 
 7                     1.70107   3.92158   7.91641 
 6                    -0.5239    2.10301   10.10706 
 7                    -0.57825   2.67502   11.11739 
 6                     1.31198  -1.75547   4.81601 
 7                     1.97257  -1.78474   3.86004 
 
                    Distance matrix (angstroms):
                    1          2          3          4          5
     1  C    0.000000
     2  C    1.423315   0.000000
     3  S    1.757418   2.827694   0.000000
     4  S    2.825849   1.770477   3.428253   0.000000
     5  C    2.713774   3.063280   1.773167   2.795470   0.000000
     6  C    3.047557   2.727187   2.791121   1.772288   1.359281
     7  C    1.380327   2.291783   2.789903   3.992857   4.001979
     8  N    2.336642   1.310672   3.998700   2.658358   4.341342
     9  S    2.542129   2.439721   4.263822   4.137445   5.120151
    10  C    3.955208   4.450782   2.675676   4.110426   1.425163
    11  N    5.029770   5.597745   3.642685   5.237162   2.586817
    12  C    4.436049   3.971317   4.106384   2.674416   2.424897
    13  N    5.583831   5.047859   5.232040   3.642352   3.504263
    14  C    2.517432   3.674472   3.286888   5.309014   4.778168
    15  N    3.607292   4.826214   4.047461   6.425950   5.618639
    16  C    6.032681   7.245004   5.460416   8.296689   7.133696
    17  C    7.245004   8.374628   6.620213   9.307849   8.223921
    18  S    5.460416   6.620213   5.400298   7.951266   7.170650
    19  S    8.296689   9.307849   7.951265  10.322970   9.601463
    20  C    7.133696   8.223921   7.170650   9.601463   8.941574
    21  C    8.143709   9.195602   8.054785  10.455284   9.801213
    22  C    5.736056   7.014359   4.801197   7.901784   6.345366
    23  N    7.821909   8.951122   6.934929   9.693406   8.390643
    24  S    7.071026   8.263796   5.907769   8.891813   7.224555
    25  C    7.555710   8.616878   7.814485  10.143177   9.578287
    26  N    8.023327   9.041083   8.440174  10.657376  10.173136
    27  C    9.451119  10.469441   9.444866  11.775992  11.199491
    28  N   10.546666  11.538266  10.590521  12.868676  12.348413
    29  C    4.870191   6.227239   3.802729   7.125262   5.295150
    30  N    4.382307   5.765398   3.221637   6.643950   4.574627
                    6          7          8          9         10
     6  C    0.000000
     7  C    4.384939   0.000000
     8  N    3.909794   2.494036   0.000000
     9  S    5.076167   1.733444   1.664607   0.000000
    10  C    2.428007   5.116215   5.699860   6.371958   0.000000
    11  N    3.509330   6.107712   6.831389   7.434461   1.162408
    12  C    1.426163   5.736923   5.009263   6.301738   2.836178
    13  N    2.587713   6.864751   5.995430   7.349618   3.609722
    14  C    5.449573   1.416040   3.876636   2.767765   5.646781
    15  N    6.435818   2.578302   5.022796   3.797715   6.306769
    16  C    8.143709   5.736056   7.821909   7.071026   7.555710
    17  C    9.195602   7.014359   8.951122   8.263796   8.616878
    18  S    8.054785   4.801197   6.934929   5.907769   7.814485
    19  S   10.455283   7.901783   9.693406   8.891812  10.143177
    20  C    9.801213   6.345366   8.390643   7.224555   9.578287
    21  C   10.659352   7.473207   9.409862   8.346976  10.405303
    22  C    7.473207   5.682918   7.785571   7.216606   6.559096
    23  N    9.409862   7.785571   9.668299   9.140050   8.616012
    24  S    8.346976   7.216606   9.140050   8.745498   7.255122
    25  C   10.405303   6.559096   8.616012   7.255122  10.245475
    26  N   10.964819   6.897135   8.911813   7.429054  10.858251
    27  C   12.040558   8.692831  10.588739   9.440376  11.812278
    28  N   13.175704   9.740110  11.596167  10.401955  12.968412
    29  C    6.512457   4.895997   7.075760   6.559293   5.409268
    30  N    5.856508   4.496378   6.668506   6.221630   4.566818
                   11         12         13         14         15
    11  N    0.000000
    12  C    3.613393   0.000000
    13  N    4.122555   1.162293   0.000000
    14  C    6.480188   6.800997   7.931563   0.000000
    15  N    7.006418   7.769948   8.891861   1.162367   0.000000
    16  C    8.023326   9.451119  10.546667   4.870191   4.382306
    17  C    9.041083  10.469440  11.538266   6.227238   5.765397
    18  S    8.440174   9.444867  10.590521   3.802728   3.221636
    19  S   10.657375  11.775991  12.868675   7.125261   6.643950
    20  C   10.173136  11.199491  12.348413   5.295149   4.574626
    21  C   10.964819  12.040558  13.175704   6.512456   5.856507
    22  C    6.897135   8.692831   9.740110   4.895996   4.496377
    23  N    8.911813  10.588739  11.596167   7.075759   6.668505
    24  S    7.429053   9.440376  10.401955   6.559293   6.221629
    25  C   10.858251  11.812278  12.968412   5.409268   4.566818
    26  N   11.481069  12.365402  13.518403   5.717817   4.831959
    27  C   12.365402  13.431163  14.571578   7.698601   6.983362
    28  N   13.518403  14.571578  15.714801   8.735660   7.995103
    29  C    5.717817   7.698601   8.735660   4.123348   3.793054
    30  N    4.831959   6.983362   7.995103   3.793055   3.567743
                   16         17         18         19         20
    16  C    0.000000
    17  C    1.423315   0.000000
    18  S    1.757418   2.827694   0.000000
    19  S    2.825849   1.770477   3.428253   0.000000
    20  C    2.713774   3.063280   1.773167   2.795470   0.000000
    21  C    3.047557   2.727187   2.791121   1.772288   1.359281
    22  C    1.380327   2.291783   2.789903   3.992857   4.001979
    23  N    2.336642   1.310672   3.998700   2.658358   4.341342
    24  S    2.542129   2.439721   4.263822   4.137445   5.120151
    25  C    3.955208   4.450782   2.675676   4.110426   1.425163
    26  N    5.029770   5.597745   3.642685   5.237162   2.586817
    27  C    4.436049   3.971317   4.106384   2.674416   2.424897
    28  N    5.583831   5.047859   5.232040   3.642352   3.504263
    29  C    2.517432   3.674472   3.286888   5.309014   4.778168
    30  N    3.607292   4.826214   4.047461   6.425950   5.618639
                   21         22         23         24         25
    21  C    0.000000
    22  C    4.384939   0.000000
    23  N    3.909794   2.494036   0.000000
    24  S    5.076167   1.733444   1.664607   0.000000
    25  C    2.428007   5.116215   5.699860   6.371958   0.000000
    26  N    3.509330   6.107712   6.831389   7.434461   1.162408
    27  C    1.426163   5.736923   5.009263   6.301738   2.836178
    28  N    2.587713   6.864751   5.995430   7.349618   3.609722
    29  C    5.449573   1.416040   3.876636   2.767765   5.646781
    30  N    6.435818   2.578302   5.022796   3.797715   6.306769
                   26         27         28         29         30
    26  N    0.000000
    27  C    3.613393   0.000000
    28  N    4.122555   1.162293   0.000000
    29  C    6.480188   6.800997   7.931563   0.000000
    30  N    7.006418   7.769948   8.891861   1.162367   0.000000
 Symmetry turned off by external request.
 Rotational constants (GHZ):      0.1959205      0.0560998      0.0476927
  1404 basis functions,  2412 primitive gaussians,  1674 cartesian basis functions
   124 alpha electrons      124 beta electrons
       nuclear repulsion energy      3417.1815672620 Hartrees.
 IMHF & INEx in M05                 6345064                -5345064
 NAtoms=   30 NActive=   30 NUniq=   30 SFac= 1.00D+00 NAtFMM=   60 NAOKFM=F Big=F
 ExpMin= 3.51D-02 ExpMax= 3.74D+05 ExpMxC= 1.18D+03 IAcc=3 IRadAn=         5 AccDes= 0.00D+00
 Harris functional with IExCor= 1009 and IRadAn=       5 diagonalized for initial guess.
 HarFok:  IExCor= 1009 AccDes= 0.00D+00 IRadAn=         5 IDoV= 1 UseB2=F ITyADJ=14
 ICtDFT=  3500011 ScaDFX=  1.000000  1.000000  1.000000  1.000000
 FoFCou: FMM=F IPFlag=           0 FMFlag=      100000 FMFlg1=           0
         NFxFlg=           0 DoJE=T BraDBF=F KetDBF=T FulRan=T
         wScrn=  0.000000 ICntrl=     500 IOpCl=  0 I1Cent=   200000004 NGrid=           0
         NMat0=    1 NMatS0=      1 NMatT0=    0 NMatD0=    1 NMtDS0=    0 NMtDT0=    0
 Symmetry not used in FoFCou.
