 Entering Gaussian System, Link 0=/data/szalewicgrp/connornm/opt/Gaussian/g09-M05-par/g09/g09
 AtFile(1): aug-cc-pVTZ.gbs
 Initial command:
 /data/szalewicgrp/connornm/opt/Gaussian/g09-M05-par/g09/l1.exe "/scratch/local/Gau-21945.inp" -scrdir="/scratch/local/"
 Entering Link 1 = /data/szalewicgrp/connornm/opt/Gaussian/g09-M05-par/g09/l1.exe PID=     21946.
  
 Copyright (c) 1988,1990,1992,1993,1995,1998,2003,2009,2013,
            Gaussian, Inc.  All Rights Reserved.
  
 This is part of the Gaussian(R) 09 program.  It is based on
 the Gaussian(R) 03 system (copyright 2003, Gaussian, Inc.),
 the Gaussian(R) 98 system (copyright 1998, Gaussian, Inc.),
 the Gaussian(R) 94 system (copyright 1995, Gaussian, Inc.),
 the Gaussian 92(TM) system (copyright 1992, Gaussian, Inc.),
 the Gaussian 90(TM) system (copyright 1990, Gaussian, Inc.),
 the Gaussian 88(TM) system (copyright 1988, Gaussian, Inc.),
 the Gaussian 86(TM) system (copyright 1986, Carnegie Mellon
 University), and the Gaussian 82(TM) system (copyright 1983,
 Carnegie Mellon University). Gaussian is a federally registered
 trademark of Gaussian, Inc.
  
 This software contains proprietary and confidential information,
 including trade secrets, belonging to Gaussian, Inc.
  
 This software is provided under written license and may be
 used, copied, transmitted, or stored only in accord with that
 written license.
  
 The following legend is applicable only to US Government
 contracts under FAR:
  
                    RESTRICTED RIGHTS LEGEND
  
 Use, reproduction and disclosure by the US Government is
 subject to restrictions as set forth in subparagraphs (a)
 and (c) of the Commercial Computer Software - Restricted
 Rights clause in FAR 52.227-19.
  
 Gaussian, Inc.
 340 Quinnipiac St., Bldg. 40, Wallingford CT 06492
  
  
 ---------------------------------------------------------------
 Warning -- This program may not be used in any manner that
 competes with the business of Gaussian, Inc. or will provide
 assistance to any competitor of Gaussian, Inc.  The licensee
 of this program is prohibited from giving any competitor of
 Gaussian, Inc. access to this program.  By using this program,
 the user acknowledges that Gaussian, Inc. is engaged in the
 business of creating and licensing software in the field of
 computational chemistry and represents and warrants to the
 licensee that it is not a competitor of Gaussian, Inc. and that
 it will not use this program in any manner prohibited above.
 ---------------------------------------------------------------
  

 Cite this work as:
 Gaussian 09, Revision D.01,
 M. J. Frisch, G. W. Trucks, H. B. Schlegel, G. E. Scuseria, 
 M. A. Robb, J. R. Cheeseman, G. Scalmani, V. Barone, B. Mennucci, 
 G. A. Petersson, H. Nakatsuji, M. Caricato, X. Li, H. P. Hratchian, 
 A. F. Izmaylov, J. Bloino, G. Zheng, J. L. Sonnenberg, M. Hada, 
 M. Ehara, K. Toyota, R. Fukuda, J. Hasegawa, M. Ishida, T. Nakajima, 
 Y. Honda, O. Kitao, H. Nakai, T. Vreven, J. A. Montgomery, Jr., 
 J. E. Peralta, F. Ogliaro, M. Bearpark, J. J. Heyd, E. Brothers, 
 K. N. Kudin, V. N. Staroverov, T. Keith, R. Kobayashi, J. Normand, 
 K. Raghavachari, A. Rendell, J. C. Burant, S. S. Iyengar, J. Tomasi, 
 M. Cossi, N. Rega, J. M. Millam, M. Klene, J. E. Knox, J. B. Cross, 
 V. Bakken, C. Adamo, J. Jaramillo, R. Gomperts, R. E. Stratmann, 
 O. Yazyev, A. J. Austin, R. Cammi, C. Pomelli, J. W. Ochterski, 
 R. L. Martin, K. Morokuma, V. G. Zakrzewski, G. A. Voth, 
 P. Salvador, J. J. Dannenberg, S. Dapprich, A. D. Daniels, 
 O. Farkas, J. B. Foresman, J. V. Ortiz, J. Cioslowski, 
 and D. J. Fox, Gaussian, Inc., Wallingford CT, 2013.
 
 ******************************************
 Gaussian 09:  AS64L-G09RevD.01 24-Apr-2013
                 1-Dec-2018 
 ******************************************
 %Chk=BLIND02126
 %Mem=2GB
 %NProcShared=16
 Will use up to   16 processors via shared memory.
 -----------------------------------------------------------
 #T M05/Gen test Massage Symmetry=None SCF=(tight,maxcyc=80)
 -----------------------------------------------------------
 -------
 M05 opt
 -------
 Symbolic Z-matrix:
 Charge =  0 Multiplicity = 1
 6                     0.13065  -0.5603   -0.84268 
 6                     0.61653  -1.18463   0.34052 
 16                    0.07975   1.17363  -1.12453 
 16                    1.226    -0.30259   1.74947 
 6                    -0.20942   1.75949   0.52389 
 6                     0.24763   1.17256   1.66154 
 6                    -0.22774  -1.52483  -1.76275 
 7                     0.64048  -2.49486   0.36456 
 16                    0.09331  -3.09004  -1.09053 
 6                    -0.95469   2.97362   0.56343 
 7                    -1.54403   3.97535   0.54364 
 6                    -0.00221   1.75335   2.93991 
 7                    -0.15673   2.20612   3.99917 
 6                    -0.74525  -1.34508  -3.06852 
 7                    -1.16202  -1.21617  -4.14592 
 6                     0.13065   0.5603    7.40067 
 6                     0.61653   1.18463   8.58387 
 16                    0.07975  -1.17363   7.11882 
 16                    1.226     0.30259   9.99282 
 6                    -0.20942  -1.75949   8.76724 
 6                     0.24763  -1.17256   9.90489 
 6                    -0.22774   1.52483   6.4806 
 7                     0.64048   2.49486   8.60791 
 16                    0.09331   3.09004   7.15282 
 6                    -0.95469  -2.97362   8.80678 
 7                    -1.54403  -3.97535   8.78699 
 6                    -0.00221  -1.75335   11.18326 
 7                    -0.15673  -2.20612   12.24252 
 6                    -0.74525   1.34508   5.17483 
 7                    -1.16202   1.21617   4.09743 
 
                    Distance matrix (angstroms):
                    1          2          3          4          5
     1  C    0.000000
     2  C    1.423315   0.000000
     3  S    1.757418   2.827694   0.000000
     4  S    2.825849   1.770477   3.428253   0.000000
     5  C    2.713774   3.063280   1.773167   2.795470   0.000000
     6  C    3.047557   2.727187   2.791121   1.772288   1.359281
     7  C    1.380327   2.291783   2.789903   3.992857   4.001979
     8  N    2.336642   1.310672   3.998700   2.658358   4.341342
     9  S    2.542129   2.439721   4.263822   4.137445   5.120151
    10  C    3.955208   4.450782   2.675676   4.110426   1.425163
    11  N    5.029770   5.597745   3.642685   5.237162   2.586817
    12  C    4.436049   3.971317   4.106384   2.674416   2.424897
    13  N    5.583831   5.047859   5.232040   3.642352   3.504263
    14  C    2.517432   3.674472   3.286888   5.309014   4.778168
    15  N    3.607292   4.826214   4.047461   6.425950   5.618639
    16  C    8.319168   7.288802   8.547383   5.820695   6.988841
    17  C    9.598990   8.577075   9.723227   7.020847   8.122559
    18  S    7.985254   6.799537   8.571021   5.559011   7.223573
    19  S   10.924848   9.785200  11.210169   8.265534   9.687293
    20  C    9.690416   8.486593  10.321519   7.309726   8.963040
    21  C   10.765632   9.571494  11.277448   8.259845   9.839162
    22  C    7.622770   6.764215   7.619438   5.276026   5.961363
    23  N    9.945228   9.049256   9.837703   7.430129   8.161774
    24  S    8.789446   8.059407   8.496311   6.479903   6.767923
    25  C   10.005706   8.794706  10.812057   7.854649   9.568915
    26  N   10.353636   9.154188  11.286581   8.407681  10.146360
    27  C   12.085698  10.875259  12.651298   9.623387  11.225200
    28  N   13.191428  11.970759  13.789726  10.753584  12.371551
    29  C    6.372443   5.623561   6.355460   4.281790   4.700011
    30  N    5.406618   4.800156   5.367740   3.677254   3.738030
                    6          7          8          9         10
     6  C    0.000000
     7  C    4.384939   0.000000
     8  N    3.909794   2.494036   0.000000
     9  S    5.076167   1.733444   1.664607   0.000000
    10  C    2.428007   5.116215   5.699860   6.371958   0.000000
    11  N    3.509330   6.107712   6.831389   7.434461   1.162408
    12  C    1.426163   5.736923   5.009263   6.301738   2.836178
    13  N    2.587713   6.864751   5.995430   7.349618   3.609722
    14  C    5.449573   1.416040   3.876636   2.767765   5.646781
    15  N    6.435818   2.578302   5.022796   3.797715   6.306769
    16  C    5.772881   9.404494   7.687703   9.242664   7.331434
    17  C    6.932158  10.728769   9.005345  10.589641   8.366397
    18  S    5.942617   8.893833   6.905082   8.430083   7.825783
    19  S    8.433516  11.985248  10.043498  11.646177  10.040075
    20  C    7.700436  10.532616   8.477503   9.951760   9.500536
    21  C    8.570439  11.682634   9.639540  11.162429  10.290737
    22  C    4.855243   8.789385   7.370054   8.872548   6.135170
    23  N    7.082009  11.156270   9.635879  11.204921   8.215072
    24  S    5.818478  10.044279   8.807440  10.302728   6.673223
    25  C    8.348103  10.693102   8.604932   9.953322  10.164767
    26  N    8.971241  10.910307   8.826174  10.051375  10.782512
    27  C    9.964255  12.949986  10.863105  12.346727  11.663279
    28  N   11.114680  14.022012  11.908184  13.364657  12.801078
    29  C    3.654961   7.525570   6.309047   7.721927   4.894995
    30  N    2.814704   6.536644   5.563731   6.858152   3.952311
                   11         12         13         14         15
    11  N    0.000000
    12  C    3.613393   0.000000
    13  N    4.122555   1.162293   0.000000
    14  C    6.480188   6.800997   7.931563   0.000000
    15  N    7.006418   7.769948   8.891861   1.162367   0.000000
    16  C    7.841300   4.619464   3.789661  10.677158  11.753748
    17  C    8.780738   5.706188   4.760338  12.001337  13.075724
    18  S    8.507741   5.102670   4.605524  10.222136  11.333060
    19  S   10.509479   7.304571   6.438879  13.311619  14.419192
    20  C   10.114204   6.807404   6.201880  11.855127  12.959638
    21  C   10.832546   7.558729   6.815904  13.012497  14.121413
    22  C    6.556304   3.555222   2.574235   9.984486  11.014032
    23  N    8.485066   5.752320   4.686086  12.369499  13.404512
    24  S    6.866287   4.420920   3.284713  11.173600  12.156514
    25  C   10.812725   7.594185   7.111933  11.988280  13.073028
    26  N   11.452799   8.329686   7.940939  12.170033  13.229485
    27  C   12.181812   8.958219   8.204409  14.276973  15.382370
    28  N   13.304096  10.111375   9.349905  15.346524  16.449060
    29  C    5.385559   2.390327   1.571596   8.671205   9.675227
    30  N    4.515354   1.724405   1.414306   7.621326   8.594715
                   16         17         18         19         20
    16  C    0.000000
    17  C    1.423315   0.000000
    18  S    1.757418   2.827694   0.000000
    19  S    2.825849   1.770477   3.428253   0.000000
    20  C    2.713774   3.063280   1.773167   2.795470   0.000000
    21  C    3.047557   2.727187   2.791121   1.772288   1.359281
    22  C    1.380327   2.291783   2.789903   3.992857   4.001979
    23  N    2.336642   1.310672   3.998700   2.658358   4.341342
    24  S    2.542129   2.439721   4.263822   4.137445   5.120151
    25  C    3.955208   4.450782   2.675676   4.110426   1.425163
    26  N    5.029770   5.597745   3.642685   5.237162   2.586817
    27  C    4.436049   3.971317   4.106384   2.674416   2.424897
    28  N    5.583831   5.047859   5.232040   3.642352   3.504263
    29  C    2.517432   3.674472   3.286888   5.309014   4.778168
    30  N    3.607292   4.826214   4.047461   6.425950   5.618639
                   21         22         23         24         25
    21  C    0.000000
    22  C    4.384939   0.000000
    23  N    3.909794   2.494036   0.000000
    24  S    5.076167   1.733444   1.664607   0.000000
    25  C    2.428007   5.116215   5.699860   6.371958   0.000000
    26  N    3.509330   6.107712   6.831389   7.434461   1.162408
    27  C    1.426163   5.736923   5.009263   6.301738   2.836178
    28  N    2.587713   6.864751   5.995430   7.349618   3.609722
    29  C    5.449573   1.416040   3.876636   2.767765   5.646781
    30  N    6.435818   2.578302   5.022796   3.797715   6.306769
                   26         27         28         29         30
    26  N    0.000000
    27  C    3.613393   0.000000
    28  N    4.122555   1.162293   0.000000
    29  C    6.480188   6.800997   7.931563   0.000000
    30  N    7.006418   7.769948   8.891861   1.162367   0.000000
 Symmetry turned off by external request.
 Rotational constants (GHZ):      0.2209726      0.0477301      0.0408654
  1404 basis functions,  2412 primitive gaussians,  1674 cartesian basis functions
   124 alpha electrons      124 beta electrons
       nuclear repulsion energy      3391.5269856903 Hartrees.
 IMHF & INEx in M05                 6345064                -5345064
 NAtoms=   30 NActive=   30 NUniq=   30 SFac= 1.00D+00 NAtFMM=   60 NAOKFM=F Big=F
 ExpMin= 3.51D-02 ExpMax= 3.74D+05 ExpMxC= 1.18D+03 IAcc=3 IRadAn=         5 AccDes= 0.00D+00
 Harris functional with IExCor= 1009 and IRadAn=       5 diagonalized for initial guess.
 HarFok:  IExCor= 1009 AccDes= 0.00D+00 IRadAn=         5 IDoV= 1 UseB2=F ITyADJ=14
 ICtDFT=  3500011 ScaDFX=  1.000000  1.000000  1.000000  1.000000
 FoFCou: FMM=F IPFlag=           0 FMFlag=      100000 FMFlg1=           0
         NFxFlg=           0 DoJE=T BraDBF=F KetDBF=T FulRan=T
         wScrn=  0.000000 ICntrl=     500 IOpCl=  0 I1Cent=   200000004 NGrid=           0
         NMat0=    1 NMatS0=      1 NMatT0=    0 NMatD0=    1 NMtDS0=    0 NMtDT0=    0
 Symmetry not used in FoFCou.
