 Entering Gaussian System, Link 0=/data/szalewicgrp/connornm/opt/Gaussian/g09-M05-par/g09/g09
 AtFile(1): aug-cc-pVTZ.gbs
 Initial command:
 /data/szalewicgrp/connornm/opt/Gaussian/g09-M05-par/g09/l1.exe "/scratch/local/Gau-28952.inp" -scrdir="/scratch/local/"
 Entering Link 1 = /data/szalewicgrp/connornm/opt/Gaussian/g09-M05-par/g09/l1.exe PID=     28953.
  
 Copyright (c) 1988,1990,1992,1993,1995,1998,2003,2009,2013,
            Gaussian, Inc.  All Rights Reserved.
  
 This is part of the Gaussian(R) 09 program.  It is based on
 the Gaussian(R) 03 system (copyright 2003, Gaussian, Inc.),
 the Gaussian(R) 98 system (copyright 1998, Gaussian, Inc.),
 the Gaussian(R) 94 system (copyright 1995, Gaussian, Inc.),
 the Gaussian 92(TM) system (copyright 1992, Gaussian, Inc.),
 the Gaussian 90(TM) system (copyright 1990, Gaussian, Inc.),
 the Gaussian 88(TM) system (copyright 1988, Gaussian, Inc.),
 the Gaussian 86(TM) system (copyright 1986, Carnegie Mellon
 University), and the Gaussian 82(TM) system (copyright 1983,
 Carnegie Mellon University). Gaussian is a federally registered
 trademark of Gaussian, Inc.
  
 This software contains proprietary and confidential information,
 including trade secrets, belonging to Gaussian, Inc.
  
 This software is provided under written license and may be
 used, copied, transmitted, or stored only in accord with that
 written license.
  
 The following legend is applicable only to US Government
 contracts under FAR:
  
                    RESTRICTED RIGHTS LEGEND
  
 Use, reproduction and disclosure by the US Government is
 subject to restrictions as set forth in subparagraphs (a)
 and (c) of the Commercial Computer Software - Restricted
 Rights clause in FAR 52.227-19.
  
 Gaussian, Inc.
 340 Quinnipiac St., Bldg. 40, Wallingford CT 06492
  
  
 ---------------------------------------------------------------
 Warning -- This program may not be used in any manner that
 competes with the business of Gaussian, Inc. or will provide
 assistance to any competitor of Gaussian, Inc.  The licensee
 of this program is prohibited from giving any competitor of
 Gaussian, Inc. access to this program.  By using this program,
 the user acknowledges that Gaussian, Inc. is engaged in the
 business of creating and licensing software in the field of
 computational chemistry and represents and warrants to the
 licensee that it is not a competitor of Gaussian, Inc. and that
 it will not use this program in any manner prohibited above.
 ---------------------------------------------------------------
  

 Cite this work as:
 Gaussian 09, Revision D.01,
 M. J. Frisch, G. W. Trucks, H. B. Schlegel, G. E. Scuseria, 
 M. A. Robb, J. R. Cheeseman, G. Scalmani, V. Barone, B. Mennucci, 
 G. A. Petersson, H. Nakatsuji, M. Caricato, X. Li, H. P. Hratchian, 
 A. F. Izmaylov, J. Bloino, G. Zheng, J. L. Sonnenberg, M. Hada, 
 M. Ehara, K. Toyota, R. Fukuda, J. Hasegawa, M. Ishida, T. Nakajima, 
 Y. Honda, O. Kitao, H. Nakai, T. Vreven, J. A. Montgomery, Jr., 
 J. E. Peralta, F. Ogliaro, M. Bearpark, J. J. Heyd, E. Brothers, 
 K. N. Kudin, V. N. Staroverov, T. Keith, R. Kobayashi, J. Normand, 
 K. Raghavachari, A. Rendell, J. C. Burant, S. S. Iyengar, J. Tomasi, 
 M. Cossi, N. Rega, J. M. Millam, M. Klene, J. E. Knox, J. B. Cross, 
 V. Bakken, C. Adamo, J. Jaramillo, R. Gomperts, R. E. Stratmann, 
 O. Yazyev, A. J. Austin, R. Cammi, C. Pomelli, J. W. Ochterski, 
 R. L. Martin, K. Morokuma, V. G. Zakrzewski, G. A. Voth, 
 P. Salvador, J. J. Dannenberg, S. Dapprich, A. D. Daniels, 
 O. Farkas, J. B. Foresman, J. V. Ortiz, J. Cioslowski, 
 and D. J. Fox, Gaussian, Inc., Wallingford CT, 2013.
 
 ******************************************
 Gaussian 09:  AS64L-G09RevD.01 24-Apr-2013
                17-Dec-2018 
 ******************************************
 %Chk=BLIND00151
 %Mem=2GB
 %NProcShared=16
 Will use up to   16 processors via shared memory.
 ---------------------------------------------
 #T M05/Gen test Massage SCF=(tight,maxcyc=20)
 ---------------------------------------------
 -------
 M05 opt
 -------
 Symbolic Z-matrix:
 Charge =  0 Multiplicity = 1
 6                     0.69566   0.39044  -0.63618 
 6                     0.65315  -1.03224  -0.63819 
 16                   -0.67655   1.44371  -0.32605 
 16                   -0.80044  -1.98214  -0.2927 
 6                    -1.58731   0.45422   0.82962 
 6                    -1.63549  -0.90417   0.8394 
 6                     1.96109   0.81743  -0.98498 
 7                     1.75642  -1.66793  -0.94892 
 16                    2.95402  -0.56738  -1.30314 
 6                    -2.33485   1.22969   1.76284 
 7                    -2.94526   1.90425   2.48642 
 6                    -2.43952  -1.60445   1.78654 
 7                    -3.10279  -2.21516   2.52005 
 6                     2.43598   2.14502  -1.11595 
 7                     2.84025   3.22806  -1.23719 
 6                     0.59325  -0.31975   4.58217 
 6                     1.11622  -0.61535   5.8725 
 16                   -1.11474  -0.2138    4.1821 
 16                    0.11792  -0.896     7.30749 
 6                    -1.76471   0.41273   5.70825 
 6                    -1.27444   0.13928   6.94619 
 6                     1.62919  -0.19961   3.67789 
 7                     2.41799  -0.71629   5.9868 
 16                    3.12848  -0.48737   4.49894 
 6                    -2.92107   1.22679   5.53157 
 7                    -3.87424   1.86366   5.33903 
 6                    -1.90254   0.65815   8.11675 
 7                    -2.39849   1.03484   9.09811 
 6                     1.55782   0.07642   2.29085 
 7                     1.51751   0.29294   1.14954 
 
                    Distance matrix (angstroms):
                    1          2          3          4          5
     1  C    0.000000
     2  C    1.423315   0.000000
     3  S    1.757418   2.827694   0.000000
     4  S    2.825849   1.770477   3.428253   0.000000
     5  C    2.713774   3.063280   1.773167   2.795470   0.000000
     6  C    3.047557   2.727187   2.791121   1.772288   1.359281
     7  C    1.380327   2.291783   2.789903   3.992857   4.001979
     8  N    2.336642   1.310672   3.998700   2.658358   4.341342
     9  S    2.542129   2.439721   4.263822   4.137445   5.120151
    10  C    3.955208   4.450782   2.675676   4.110426   1.425163
    11  N    5.029770   5.597745   3.642685   5.237162   2.586817
    12  C    4.436049   3.971317   4.106384   2.674416   2.424897
    13  N    5.583831   5.047859   5.232040   3.642352   3.504263
    14  C    2.517432   3.674472   3.286888   5.309014   4.778168
    15  N    3.607292   4.826214   4.047461   6.425950   5.618639
    16  C    5.267445   5.269093   5.367749   5.335756   4.408574
    17  C    6.599343   6.540432   6.773159   6.599348   5.820971
    18  S    5.182516   5.199083   4.823147   4.821794   3.450904
    19  S    8.067878   7.964856   8.023488   7.732148   6.833287
    20  C    6.804824   6.943430   6.217692   6.532736   4.882031
    21  C    7.838157   7.912703   7.412452   7.558221   6.132663
    22  C    4.453182   4.502718   4.903921   4.984588   4.345805
    23  N    6.932177   6.863303   7.354847   7.168877   6.633932
    24  S    5.749666   5.728377   6.441109   6.374218   6.048907
    25  C    7.198712   7.479592   6.276678   6.979728   4.948153
    26  N    7.665340   8.038071   6.518792   7.480297   5.248937
    27  C    9.134334   9.275663   8.567437   8.882833   7.296800
    28  N   10.234518  10.410610   9.588897   9.992162   8.328451
    29  C    3.067479   3.259884   3.702705   4.058798   3.488521
    30  N    1.968179   2.387298   2.883663   3.553722   3.125421
                    6          7          8          9         10
     6  C    0.000000
     7  C    4.384939   0.000000
     8  N    3.909794   2.494036   0.000000
     9  S    5.076167   1.733444   1.664607   0.000000
    10  C    2.428007   5.116215   5.699860   6.371958   0.000000
    11  N    3.509330   6.107712   6.831389   7.434461   1.162408
    12  C    1.426163   5.736923   5.009263   6.301738   2.836178
    13  N    2.587713   6.864751   5.995430   7.349618   3.609722
    14  C    5.449573   1.416040   3.876636   2.767765   5.646781
    15  N    6.435818   2.578302   5.022796   3.797715   6.306769
    16  C    4.395131   5.844427   5.810636   6.345969   4.350076
    17  C    5.743467   7.056325   6.931777   7.407397   5.674799
    18  S    3.452746   6.101061   6.056851   6.838687   3.070043
    19  S    6.701552   8.665930   8.452751   9.071628   6.424780
    20  C    5.045453   7.671030   7.813155   8.508025   4.069237
    21  C    6.205808   8.592561   8.647828   9.296808   5.401903
    22  C    4.383101   4.784031   4.855878   5.167309   4.628600
    23  N    6.554521   7.153098   7.031892   7.311133   6.649674
    24  S    6.021750   5.756630   5.740691   5.805256   6.346859
    25  C    5.311332   8.152831   8.500307   9.189616   3.814053
    26  N    5.737552   8.668263   9.149576   9.831244   3.944706
    27  C    7.447954   9.889112  10.049131  10.668754   6.394192
    28  N    8.517523  10.987355  11.203171  11.806877   7.338128
    29  C    3.642187   3.382724   3.684881   3.909042   4.094109
    30  N    3.386838   2.242332   2.881949   2.969736   4.011775
                   11         12         13         14         15
    11  N    0.000000
    12  C    3.613393   0.000000
    13  N    4.122555   1.162293   0.000000
    14  C    6.480188   6.800997   7.931563   0.000000
    15  N    7.006418   7.769948   8.891861   1.162367   0.000000
    16  C    4.675403   4.320157   4.637421   6.476051   7.176406
    17  C    5.857432   5.506061   5.621241   7.628878   8.263879
    18  S    3.272961   3.070456   3.274172   6.800072   7.540360
    19  S    6.361382   6.125634   5.918851   9.250708   9.870690
    20  C    3.741453   4.461413   4.342910   8.198552   8.796065
    21  C    5.079004   5.569563   5.336380   9.098808   9.666381
    22  C    5.174110   4.701619   5.272065   5.397139   6.113395
    23  N    6.919850   6.482783   6.689096   7.657442   8.241490
    24  S    6.830848   6.293469   6.762404   6.239876   6.840373
    25  C    3.119692   4.719445   4.577045   8.586661   9.111205
    26  N    3.000332   5.167822   5.017818   9.031320   9.496975
    27  C    5.860087   6.743838   6.404655  10.309035  10.797896
    28  N    6.690979   7.773455   7.370845  11.354803  11.792919
    29  C    4.863841   4.365599   5.198578   4.081242   4.901477
    30  N    4.929493   4.434409   5.432867   3.066959   4.007622
                   16         17         18         19         20
    16  C    0.000000
    17  C    1.423315   0.000000
    18  S    1.757418   2.827694   0.000000
    19  S    2.825849   1.770477   3.428253   0.000000
    20  C    2.713774   3.063280   1.773167   2.795470   0.000000
    21  C    3.047557   2.727187   2.791121   1.772288   1.359281
    22  C    1.380327   2.291783   2.789903   3.992857   4.001979
    23  N    2.336642   1.310672   3.998700   2.658358   4.341342
    24  S    2.542129   2.439721   4.263822   4.137445   5.120151
    25  C    3.955208   4.450782   2.675676   4.110426   1.425163
    26  N    5.029770   5.597745   3.642685   5.237162   2.586817
    27  C    4.436049   3.971317   4.106384   2.674416   2.424897
    28  N    5.583831   5.047859   5.232040   3.642352   3.504263
    29  C    2.517432   3.674472   3.286888   5.309014   4.778168
    30  N    3.607292   4.826214   4.047461   6.425950   5.618639
                   21         22         23         24         25
    21  C    0.000000
    22  C    4.384939   0.000000
    23  N    3.909794   2.494036   0.000000
    24  S    5.076167   1.733444   1.664607   0.000000
    25  C    2.428007   5.116215   5.699860   6.371958   0.000000
    26  N    3.509330   6.107712   6.831389   7.434461   1.162408
    27  C    1.426163   5.736923   5.009263   6.301738   2.836178
    28  N    2.587713   6.864751   5.995430   7.349618   3.609722
    29  C    5.449573   1.416040   3.876636   2.767765   5.646781
    30  N    6.435818   2.578302   5.022796   3.797715   6.306769
                   26         27         28         29         30
    26  N    0.000000
    27  C    3.613393   0.000000
    28  N    4.122555   1.162293   0.000000
    29  C    6.480188   6.800997   7.931563   0.000000
    30  N    7.006418   7.769948   8.891861   1.162367   0.000000
 Symmetry turned off by external request.
 Framework group  C1[X(C16N8S6)]
 Deg. of freedom    84
 Rotational constants (GHZ):      0.1982835      0.0847321      0.0724904
  1404 basis functions,  2412 primitive gaussians,  1674 cartesian basis functions
   124 alpha electrons      124 beta electrons
       nuclear repulsion energy      3741.9507552405 Hartrees.
 IMHF & INEx in M05                  599485                  400514
 NAtoms=   30 NActive=   30 NUniq=   30 SFac= 1.00D+00 NAtFMM=   60 NAOKFM=F Big=F
 ExpMin= 3.51D-02 ExpMax= 3.74D+05 ExpMxC= 1.18D+03 IAcc=3 IRadAn=         5 AccDes= 0.00D+00
 Harris functional with IExCor= 1009 and IRadAn=       5 diagonalized for initial guess.
 HarFok:  IExCor= 1009 AccDes= 0.00D+00 IRadAn=         5 IDoV= 1 UseB2=F ITyADJ=14
 ICtDFT=  3500011 ScaDFX=  1.000000  1.000000  1.000000  1.000000
 FoFCou: FMM=F IPFlag=           0 FMFlag=      100000 FMFlg1=           0
         NFxFlg=           0 DoJE=T BraDBF=F KetDBF=T FulRan=T
         wScrn=  0.000000 ICntrl=     500 IOpCl=  0 I1Cent=   200000004 NGrid=           0
         NMat0=    1 NMatS0=      1 NMatT0=    0 NMatD0=    1 NMtDS0=    0 NMtDT0=    0
 Symmetry not used in FoFCou.
 >>>>>>>>>> Convergence criterion not met.
 SCF Done:  E(RM05) =  -3448.51651114     A.U. after   21 cycles
            NFock= 20  Conv=0.97D-06     -V/T= 2.0044
 Convergence failure -- run terminated.
 Error termination via Lnk1e in /data/szalewicgrp/connornm/opt/Gaussian/g09-M05-par/g09/l502.exe at Tue Dec 18 05:12:15 2018.
 Job cpu time:       6 days  0 hours 58 minutes 51.4 seconds.
 File lengths (MBytes):  RWF=   1011 Int=      0 D2E=      0 Chk=     31 Scr=      1
