 Entering Gaussian System, Link 0=/data/szalewicgrp/connornm/opt/Gaussian/g09-M05-par/g09/g09
 AtFile(1): aug-cc-pVTZ.gbs
 Initial command:
 /data/szalewicgrp/connornm/opt/Gaussian/g09-M05-par/g09/l1.exe "/scratch/local/Gau-28683.inp" -scrdir="/scratch/local/"
 Entering Link 1 = /data/szalewicgrp/connornm/opt/Gaussian/g09-M05-par/g09/l1.exe PID=     28684.
  
 Copyright (c) 1988,1990,1992,1993,1995,1998,2003,2009,2013,
            Gaussian, Inc.  All Rights Reserved.
  
 This is part of the Gaussian(R) 09 program.  It is based on
 the Gaussian(R) 03 system (copyright 2003, Gaussian, Inc.),
 the Gaussian(R) 98 system (copyright 1998, Gaussian, Inc.),
 the Gaussian(R) 94 system (copyright 1995, Gaussian, Inc.),
 the Gaussian 92(TM) system (copyright 1992, Gaussian, Inc.),
 the Gaussian 90(TM) system (copyright 1990, Gaussian, Inc.),
 the Gaussian 88(TM) system (copyright 1988, Gaussian, Inc.),
 the Gaussian 86(TM) system (copyright 1986, Carnegie Mellon
 University), and the Gaussian 82(TM) system (copyright 1983,
 Carnegie Mellon University). Gaussian is a federally registered
 trademark of Gaussian, Inc.
  
 This software contains proprietary and confidential information,
 including trade secrets, belonging to Gaussian, Inc.
  
 This software is provided under written license and may be
 used, copied, transmitted, or stored only in accord with that
 written license.
  
 The following legend is applicable only to US Government
 contracts under FAR:
  
                    RESTRICTED RIGHTS LEGEND
  
 Use, reproduction and disclosure by the US Government is
 subject to restrictions as set forth in subparagraphs (a)
 and (c) of the Commercial Computer Software - Restricted
 Rights clause in FAR 52.227-19.
  
 Gaussian, Inc.
 340 Quinnipiac St., Bldg. 40, Wallingford CT 06492
  
  
 ---------------------------------------------------------------
 Warning -- This program may not be used in any manner that
 competes with the business of Gaussian, Inc. or will provide
 assistance to any competitor of Gaussian, Inc.  The licensee
 of this program is prohibited from giving any competitor of
 Gaussian, Inc. access to this program.  By using this program,
 the user acknowledges that Gaussian, Inc. is engaged in the
 business of creating and licensing software in the field of
 computational chemistry and represents and warrants to the
 licensee that it is not a competitor of Gaussian, Inc. and that
 it will not use this program in any manner prohibited above.
 ---------------------------------------------------------------
  

 Cite this work as:
 Gaussian 09, Revision D.01,
 M. J. Frisch, G. W. Trucks, H. B. Schlegel, G. E. Scuseria, 
 M. A. Robb, J. R. Cheeseman, G. Scalmani, V. Barone, B. Mennucci, 
 G. A. Petersson, H. Nakatsuji, M. Caricato, X. Li, H. P. Hratchian, 
 A. F. Izmaylov, J. Bloino, G. Zheng, J. L. Sonnenberg, M. Hada, 
 M. Ehara, K. Toyota, R. Fukuda, J. Hasegawa, M. Ishida, T. Nakajima, 
 Y. Honda, O. Kitao, H. Nakai, T. Vreven, J. A. Montgomery, Jr., 
 J. E. Peralta, F. Ogliaro, M. Bearpark, J. J. Heyd, E. Brothers, 
 K. N. Kudin, V. N. Staroverov, T. Keith, R. Kobayashi, J. Normand, 
 K. Raghavachari, A. Rendell, J. C. Burant, S. S. Iyengar, J. Tomasi, 
 M. Cossi, N. Rega, J. M. Millam, M. Klene, J. E. Knox, J. B. Cross, 
 V. Bakken, C. Adamo, J. Jaramillo, R. Gomperts, R. E. Stratmann, 
 O. Yazyev, A. J. Austin, R. Cammi, C. Pomelli, J. W. Ochterski, 
 R. L. Martin, K. Morokuma, V. G. Zakrzewski, G. A. Voth, 
 P. Salvador, J. J. Dannenberg, S. Dapprich, A. D. Daniels, 
 O. Farkas, J. B. Foresman, J. V. Ortiz, J. Cioslowski, 
 and D. J. Fox, Gaussian, Inc., Wallingford CT, 2013.
 
 ******************************************
 Gaussian 09:  AS64L-G09RevD.01 24-Apr-2013
                 1-Dec-2018 
 ******************************************
 %Chk=BLIND01330
 %Mem=2GB
 %NProcShared=16
 Will use up to   16 processors via shared memory.
 -----------------------------------------------------------
 #T M05/Gen test Massage Symmetry=None SCF=(tight,maxcyc=80)
 -----------------------------------------------------------
 -------
 M05 opt
 -------
 Symbolic Z-matrix:
 Charge =  0 Multiplicity = 1
 6-Bq                 -0.09124   0.85372  -0.55131 
 6-Bq                 -0.89442  -0.22169  -1.02484 
 16-Bq                 1.4549    0.67898   0.26566 
 16-Bq                -0.47503  -1.93141  -0.83623 
 6-Bq                  1.19255  -0.8478    1.12836 
 6-Bq                  0.42768  -1.88163   0.68812 
 6-Bq                 -0.67621   2.05595  -0.89446 
 7-Bq                 -1.99433   0.08513  -1.66819 
 16-Bq                -2.13139   1.74019  -1.78192 
 6-Bq                  1.91443  -0.92875   2.3545 
 7-Bq                  2.54018  -0.95764   3.33369 
 6-Bq                  0.32067  -3.08902   1.43958 
 7-Bq                  0.22795  -4.10096   2.00377 
 6-Bq                 -0.21014   3.36705  -0.63186 
 7-Bq                  0.162     4.45018  -0.43323 
 6                     0.87751  -0.51396   8.59976 
 6                     0.925     0.55      7.65554 
 16                   -0.11844  -0.53883   10.04751 
 16                   -0.04785   2.02462   7.77229 
 6                    -1.52516   0.38344   9.48656 
 6                    -1.49372   1.40036   8.58515 
 6                     1.78492  -1.49128   8.24374 
 7                     1.76917   0.43493   6.65954 
 16                    2.6162   -0.9904    6.80745 
 6                    -2.74094  -0.01249   10.11601 
 7                    -3.70224  -0.3541    10.67315 
 6                    -2.68024   2.11074   8.23661 
 7                    -3.61597   2.73554   7.94512 
 6                     2.07075  -2.70922   8.90714 
 7                     2.32476  -3.70866   9.4435 
 
                    Distance matrix (angstroms):
                    1          2          3          4          5
     1  C    0.000000
     2  C    1.423315   0.000000
     3  S    1.757418   2.827694   0.000000
     4  S    2.825849   1.770477   3.428253   0.000000
     5  C    2.713774   3.063280   1.773167   2.795470   0.000000
     6  C    3.047557   2.727187   2.791121   1.772288   1.359281
     7  C    1.380327   2.291783   2.789903   3.992857   4.001979
     8  N    2.336642   1.310672   3.998700   2.658358   4.341342
     9  S    2.542129   2.439721   4.263822   4.137445   5.120151
    10  C    3.955208   4.450782   2.675676   4.110426   1.425163
    11  N    5.029770   5.597745   3.642685   5.237162   2.586817
    12  C    4.436049   3.971317   4.106384   2.674416   2.424897
    13  N    5.583831   5.047859   5.232040   3.642352   3.504263
    14  C    2.517432   3.674472   3.286888   5.309014   4.778168
    15  N    3.607292   4.826214   4.047461   6.425950   5.618639
    16  C    9.303287   9.790711   8.438824   9.637241   7.485491
    17  C    8.275107   8.902513   7.409977   8.956988   6.680534
    18  S   10.689947  11.104036   9.982139  10.978263   9.020282
    19  S    8.405659   9.118768   7.772928   9.483625   7.343783
    20  C   10.150666  10.547671   9.694999  10.631140   8.874761
    21  C    9.259630   9.764330   8.856000  10.044942   8.238574
    22  C    9.293646   9.731245   8.274580   9.367328   7.168932
    23  N    7.458746   8.159380   6.406252   8.174507   5.707177
    24  S    8.054964   8.617431   6.850586   8.298621   5.856556
    25  C   11.025556  11.294770  10.729051  11.347601   9.846215
    26  N   11.852707  12.030975  11.661012  12.056891  10.738054
    27  C    9.247193   9.716162   9.093150  10.174394   8.618511
    28  N    9.389051   9.829151   9.429594  10.428710   9.079121
    29  C   10.335907  10.659460   9.302381  10.100453   8.046460
    30  N   11.249383  11.493829  10.209839  10.801400   8.866116
                    6          7          8          9         10
     6  C    0.000000
     7  C    4.384939   0.000000
     8  N    3.909794   2.494036   0.000000
     9  S    5.076167   1.733444   1.664607   0.000000
    10  C    2.428007   5.116215   5.699860   6.371958   0.000000
    11  N    3.509330   6.107712   6.831389   7.434461   1.162408
    12  C    1.426163   5.736923   5.009263   6.301738   2.836178
    13  N    2.587713   6.864751   5.995430   7.349618   3.609722
    14  C    5.449573   1.416040   3.876636   2.767765   5.646781
    15  N    6.435818   2.578302   5.022796   3.797715   6.306769
    16  C    8.041578   9.957850  10.678819  11.041465   6.344329
    17  C    7.396293   8.828042   9.781132   9.991183   5.591661
    18  S    9.470991  11.259253  11.881328  12.213981   7.966618
    19  S    8.103725   8.689551   9.832239   9.782885   6.474977
    20  C    9.292829  10.549100  11.168590  11.366036   8.026133
    21  C    8.765072   9.537360  10.349467  10.392223   7.474042
    22  C    7.686471  10.106765  10.724461  11.238044   5.917456
    23  N    6.544001   8.103738   9.145347   9.390223   4.518197
    24  S    6.559740   8.912899   9.708260  10.186906   4.508333
    25  C   10.120227  11.391750  11.808227  12.041764   9.096865
    26  N   10.912862  12.197330  12.466699  12.727231  10.053711
    27  C    9.087242   9.348563  10.133045  10.040394   8.059076
    28  N    9.504394   9.340354  10.102974   9.889895   8.675676
    29  C    8.422402  11.239395  11.669225  12.317106   6.792018
    30  N    9.142957  12.211063  12.510677  13.249802   7.625624
                   11         12         13         14         15
    11  N    0.000000
    12  C    3.613393   0.000000
    13  N    4.122555   1.162293   0.000000
    14  C    6.480188   6.800997   7.931563   0.000000
    15  N    7.006418   7.769948   8.891861   1.162367   0.000000
    16  C    5.540116   7.629500   7.536280  10.073143  10.331967
    17  C    4.853886   7.228135   7.352534   8.826406   9.012311
    18  S    7.233197   8.988487   8.804005  11.371607  11.610975
    19  S    5.940789   8.147907   8.418699   8.512238   8.559077
    20  C    7.495552   8.956506   8.898047  10.630789  10.852971
    21  C    7.029259   8.631681   8.748900   9.511515   9.663023
    22  C    4.996377   7.140965   6.940582  10.313099  10.640702
    23  N    3.687147   6.462540   6.680254   8.104297   8.307382
    24  S    3.474755   6.203853   6.201182   9.072987   9.383521
    25  C    8.647741   9.701496   9.557103  11.547426  11.816465
    26  N    9.654004  10.436599  10.229540  12.403433  12.702955
    27  C    7.791434   9.068777   9.267739   9.291374   9.418994
    28  N    8.532472   9.578352   9.839361   9.250037   9.349319
    29  C    5.861035   7.679289   7.279373  11.537596  11.922362
    30  N    6.704053   8.274243   7.739510  12.569983  12.992073
                   16         17         18         19         20
    16  C    0.000000
    17  C    1.423315   0.000000
    18  S    1.757418   2.827694   0.000000
    19  S    2.825849   1.770477   3.428253   0.000000
    20  C    2.713774   3.063280   1.773167   2.795470   0.000000
    21  C    3.047557   2.727187   2.791121   1.772288   1.359281
    22  C    1.380327   2.291783   2.789903   3.992857   4.001979
    23  N    2.336642   1.310672   3.998700   2.658358   4.341342
    24  S    2.542129   2.439721   4.263822   4.137445   5.120151
    25  C    3.955208   4.450782   2.675676   4.110426   1.425163
    26  N    5.029770   5.597745   3.642685   5.237162   2.586817
    27  C    4.436049   3.971317   4.106384   2.674416   2.424897
    28  N    5.583831   5.047859   5.232040   3.642352   3.504263
    29  C    2.517432   3.674472   3.286888   5.309014   4.778168
    30  N    3.607292   4.826214   4.047461   6.425950   5.618639
                   21         22         23         24         25
    21  C    0.000000
    22  C    4.384939   0.000000
    23  N    3.909794   2.494036   0.000000
    24  S    5.076167   1.733444   1.664607   0.000000
    25  C    2.428007   5.116215   5.699860   6.371958   0.000000
    26  N    3.509330   6.107712   6.831389   7.434461   1.162408
    27  C    1.426163   5.736923   5.009263   6.301738   2.836178
    28  N    2.587713   6.864751   5.995430   7.349618   3.609722
    29  C    5.449573   1.416040   3.876636   2.767765   5.646781
    30  N    6.435818   2.578302   5.022796   3.797715   6.306769
                   26         27         28         29         30
    26  N    0.000000
    27  C    3.613393   0.000000
    28  N    4.122555   1.162293   0.000000
    29  C    6.480188   6.800997   7.931563   0.000000
    30  N    7.006418   7.769948   8.891861   1.162367   0.000000
 Symmetry turned off by external request.
 Rotational constants (GHZ):      0.1546088      0.0465368      0.0412670
  1404 basis functions,  2412 primitive gaussians,  1674 cartesian basis functions
    62 alpha electrons       62 beta electrons
       nuclear repulsion energy      1166.1400400198 Hartrees.
 IMHF & INEx in M05                 6345064                -5345064
 NAtoms=   30 NActive=   30 NUniq=   30 SFac= 1.00D+00 NAtFMM=   60 NAOKFM=F Big=F
 ExpMin= 3.51D-02 ExpMax= 3.74D+05 ExpMxC= 1.18D+03 IAcc=3 IRadAn=         5 AccDes= 0.00D+00
 Harris functional with IExCor= 1009 and IRadAn=       5 diagonalized for initial guess.
 HarFok:  IExCor= 1009 AccDes= 0.00D+00 IRadAn=         5 IDoV= 1 UseB2=F ITyADJ=14
 ICtDFT=  3500011 ScaDFX=  1.000000  1.000000  1.000000  1.000000
 FoFCou: FMM=F IPFlag=           0 FMFlag=      100000 FMFlg1=           0
         NFxFlg=           0 DoJE=T BraDBF=F KetDBF=T FulRan=T
         wScrn=  0.000000 ICntrl=     500 IOpCl=  0 I1Cent=   200000004 NGrid=           0
         NMat0=    1 NMatS0=      1 NMatT0=    0 NMatD0=    1 NMtDS0=    0 NMtDT0=    0
 Symmetry not used in FoFCou.
