 Entering Gaussian System, Link 0=/data/szalewicgrp/connornm/opt/Gaussian/g09-M05-par/g09/g09
 AtFile(1): aug-cc-pVTZ.gbs
 Initial command:
 /data/szalewicgrp/connornm/opt/Gaussian/g09-M05-par/g09/l1.exe "/scratch/local/Gau-29590.inp" -scrdir="/scratch/local/"
 Entering Link 1 = /data/szalewicgrp/connornm/opt/Gaussian/g09-M05-par/g09/l1.exe PID=     29591.
  
 Copyright (c) 1988,1990,1992,1993,1995,1998,2003,2009,2013,
            Gaussian, Inc.  All Rights Reserved.
  
 This is part of the Gaussian(R) 09 program.  It is based on
 the Gaussian(R) 03 system (copyright 2003, Gaussian, Inc.),
 the Gaussian(R) 98 system (copyright 1998, Gaussian, Inc.),
 the Gaussian(R) 94 system (copyright 1995, Gaussian, Inc.),
 the Gaussian 92(TM) system (copyright 1992, Gaussian, Inc.),
 the Gaussian 90(TM) system (copyright 1990, Gaussian, Inc.),
 the Gaussian 88(TM) system (copyright 1988, Gaussian, Inc.),
 the Gaussian 86(TM) system (copyright 1986, Carnegie Mellon
 University), and the Gaussian 82(TM) system (copyright 1983,
 Carnegie Mellon University). Gaussian is a federally registered
 trademark of Gaussian, Inc.
  
 This software contains proprietary and confidential information,
 including trade secrets, belonging to Gaussian, Inc.
  
 This software is provided under written license and may be
 used, copied, transmitted, or stored only in accord with that
 written license.
  
 The following legend is applicable only to US Government
 contracts under FAR:
  
                    RESTRICTED RIGHTS LEGEND
  
 Use, reproduction and disclosure by the US Government is
 subject to restrictions as set forth in subparagraphs (a)
 and (c) of the Commercial Computer Software - Restricted
 Rights clause in FAR 52.227-19.
  
 Gaussian, Inc.
 340 Quinnipiac St., Bldg. 40, Wallingford CT 06492
  
  
 ---------------------------------------------------------------
 Warning -- This program may not be used in any manner that
 competes with the business of Gaussian, Inc. or will provide
 assistance to any competitor of Gaussian, Inc.  The licensee
 of this program is prohibited from giving any competitor of
 Gaussian, Inc. access to this program.  By using this program,
 the user acknowledges that Gaussian, Inc. is engaged in the
 business of creating and licensing software in the field of
 computational chemistry and represents and warrants to the
 licensee that it is not a competitor of Gaussian, Inc. and that
 it will not use this program in any manner prohibited above.
 ---------------------------------------------------------------
  

 Cite this work as:
 Gaussian 09, Revision D.01,
 M. J. Frisch, G. W. Trucks, H. B. Schlegel, G. E. Scuseria, 
 M. A. Robb, J. R. Cheeseman, G. Scalmani, V. Barone, B. Mennucci, 
 G. A. Petersson, H. Nakatsuji, M. Caricato, X. Li, H. P. Hratchian, 
 A. F. Izmaylov, J. Bloino, G. Zheng, J. L. Sonnenberg, M. Hada, 
 M. Ehara, K. Toyota, R. Fukuda, J. Hasegawa, M. Ishida, T. Nakajima, 
 Y. Honda, O. Kitao, H. Nakai, T. Vreven, J. A. Montgomery, Jr., 
 J. E. Peralta, F. Ogliaro, M. Bearpark, J. J. Heyd, E. Brothers, 
 K. N. Kudin, V. N. Staroverov, T. Keith, R. Kobayashi, J. Normand, 
 K. Raghavachari, A. Rendell, J. C. Burant, S. S. Iyengar, J. Tomasi, 
 M. Cossi, N. Rega, J. M. Millam, M. Klene, J. E. Knox, J. B. Cross, 
 V. Bakken, C. Adamo, J. Jaramillo, R. Gomperts, R. E. Stratmann, 
 O. Yazyev, A. J. Austin, R. Cammi, C. Pomelli, J. W. Ochterski, 
 R. L. Martin, K. Morokuma, V. G. Zakrzewski, G. A. Voth, 
 P. Salvador, J. J. Dannenberg, S. Dapprich, A. D. Daniels, 
 O. Farkas, J. B. Foresman, J. V. Ortiz, J. Cioslowski, 
 and D. J. Fox, Gaussian, Inc., Wallingford CT, 2013.
 
 ******************************************
 Gaussian 09:  AS64L-G09RevD.01 24-Apr-2013
                 1-Dec-2018 
 ******************************************
 %Chk=BLIND00534
 %Mem=2GB
 %NProcShared=16
 Will use up to   16 processors via shared memory.
 -----------------------------------------------------------
 #T M05/Gen test Massage Symmetry=None SCF=(tight,maxcyc=80)
 -----------------------------------------------------------
 -------
 M05 opt
 -------
 Symbolic Z-matrix:
 Charge =  0 Multiplicity = 1
 6                    -0.77532  -0.61144  -0.25718 
 6                    -1.13191   0.76452  -0.18359 
 16                    0.81061  -1.2237   -0.7027 
 16                   -0.01206   2.09834  -0.5021 
 6                     1.8461    0.0593   -0.05018 
 6                     1.5175    1.37602   0.02679 
 6                    -1.88283  -1.39255   0.00469 
 7                    -2.37784   1.04975   0.10649 
 16                   -3.2458   -0.35922   0.28642 
 6                     3.12545  -0.41144   0.36546 
 7                     4.16337  -0.8383    0.66828 
 6                     2.44487   2.33713   0.52697 
 7                     3.17829   3.15813   0.89977 
 6                    -1.97744  -2.80528   0.02463 
 7                    -2.07552  -3.96344   0.03618 
 6                     0.14572  -0.88396   5.08475 
 6                    -0.98922  -0.15749   4.62651 
 16                    1.6103   -0.16625   5.73928 
 16                   -1.12262   1.60736   4.67233 
 6                     0.93859   1.27137   6.5306 
 6                    -0.14454   1.9733    6.10427 
 6                    -0.04976  -2.23354   4.87089 
 7                    -1.97755  -0.84615   4.10997 
 16                   -1.58926  -2.46484   4.10848 
 6                     1.68287   1.6789    7.67562 
 7                     2.33518   1.98586   8.58746 
 6                    -0.57581   3.14747   6.78929 
 7                    -0.94482   4.12495   7.29852 
 6                     0.82632  -3.3063    5.16559 
 7                     1.53656  -4.19812   5.39208 
 
                    Distance matrix (angstroms):
                    1          2          3          4          5
     1  C    0.000000
     2  C    1.423315   0.000000
     3  S    1.757418   2.827694   0.000000
     4  S    2.825849   1.770477   3.428253   0.000000
     5  C    2.713774   3.063280   1.773167   2.795470   0.000000
     6  C    3.047557   2.727187   2.791121   1.772288   1.359281
     7  C    1.380327   2.291783   2.789903   3.992857   4.001979
     8  N    2.336642   1.310672   3.998700   2.658358   4.341342
     9  S    2.542129   2.439721   4.263822   4.137445   5.120151
    10  C    3.955208   4.450782   2.675676   4.110426   1.425163
    11  N    5.029770   5.597745   3.642685   5.237162   2.586817
    12  C    4.436049   3.971317   4.106384   2.674416   2.424897
    13  N    5.583831   5.047859   5.232040   3.642352   3.504263
    14  C    2.517432   3.674472   3.286888   5.309014   4.778168
    15  N    3.607292   4.826214   4.047461   6.425950   5.618639
    16  C    5.427593   5.666152   5.835423   6.334977   5.490769
    17  C    4.909399   4.899749   5.725094   5.687379   5.473339
    18  S    6.468917   6.592914   6.576999   6.834861   5.798650
    19  S    5.416980   4.928532   6.375202   5.314993   5.788939
    20  C    7.249575   7.044448   7.652608   7.144684   6.752724
    21  C    6.895412   6.478675   7.580762   6.608880   6.745606
    22  C    5.427219   5.975549   5.729309   6.901855   5.750504
    23  N    4.535682   4.663050   5.574782   5.814154   5.722497
    24  S    4.812124   5.390714   5.517905   6.675896   5.955450
    25  C    8.614958   8.397989   8.909667   8.362044   7.895417
    26  N    9.728757   9.510191   9.946493   9.388412   8.863384
    27  C    7.988864   7.389781   8.784039   7.388029   7.885482
    28  N    8.919111   8.204232   9.783100   8.113376   8.849972
    29  C    6.263693   7.001421   6.226902   7.876270   6.290580
    30  N    7.079772   7.926958   6.820602   8.762704   6.916619
                    6          7          8          9         10
     6  C    0.000000
     7  C    4.384939   0.000000
     8  N    3.909794   2.494036   0.000000
     9  S    5.076167   1.733444   1.664607   0.000000
    10  C    2.428007   5.116215   5.699860   6.371958   0.000000
    11  N    3.509330   6.107712   6.831389   7.434461   1.162408
    12  C    1.426163   5.736923   5.009263   6.301738   2.836178
    13  N    2.587713   6.864751   5.995430   7.349618   3.609722
    14  C    5.449573   1.416040   3.876636   2.767765   5.646781
    15  N    6.435818   2.578302   5.022796   3.797715   6.306769
    16  C    5.707216   5.493694   5.906833   5.899297   5.601231
    17  C    5.458274   4.866731   4.880190   4.895832   5.928873
    18  S    5.917758   6.825782   7.008017   7.304288   5.588717
    19  S    5.348345   5.600371   4.767953   5.254661   6.377359
    20  C    6.530365   7.592387   7.233050   7.691403   6.754486
    21  C    6.328893   7.180208   6.466366   6.993265   7.022369
    22  C    6.241036   5.267571   6.236943   5.894497   5.805246
    23  N    5.815994   4.142559   4.447753   4.057715   6.344362
    24  S    6.408145   4.251711   5.384246   4.667535   6.360431
    25  C    7.656611   8.999503   8.612597   9.112949   7.738792
    26  N    8.621232  10.142442   9.747598  10.273943   8.600743
    27  C    7.297364   8.267460   7.232399   7.855763   8.223795
    28  N    8.154613   9.193608   7.952080   8.635486   9.231096
    29  C    6.986349   6.134880   7.405149   7.005259   6.058663
    30  N    7.736781   6.970469   8.414284   7.979718   6.490794
                   11         12         13         14         15
    11  N    0.000000
    12  C    3.613393   0.000000
    13  N    4.122555   1.162293   0.000000
    14  C    6.480188   6.800997   7.931563   0.000000
    15  N    7.006418   7.769948   8.891861   1.162367   0.000000
    16  C    5.970666   6.036135   6.561180   5.814132   6.317059
    17  C    6.533015   5.901048   6.500008   5.400432   6.061060
    18  S    5.717072   5.842232   6.077090   7.245249   7.780063
    19  S    7.067909   5.517567   5.927471   6.465541   7.309975
    20  C    7.015460   6.280787   6.346837   8.212794   8.869367
    21  C    7.484193   6.159841   6.287431   7.947100   8.706053
    22  C    6.112207   6.781138   7.433719   5.246819   5.520032
    23  N    7.039617   6.521425   7.274776   4.530805   5.130581
    24  S    6.897341   7.222209   8.040093   4.116361   4.366452
    25  C    7.848055   7.219215   7.094822   9.593923  10.213843
    26  N    8.604160   8.068885   7.822122  10.718014  11.312514
    27  C    8.707072   6.999849   6.984261   9.119242   9.920628
    28  N    9.730752   7.780756   7.673250  10.099693  10.928956
    29  C    6.119858   7.482296   8.094305   5.877203   5.929869
    30  N    6.364179   8.197795   8.774426   6.564887   6.464358
                   16         17         18         19         20
    16  C    0.000000
    17  C    1.423315   0.000000
    18  S    1.757418   2.827694   0.000000
    19  S    2.825849   1.770477   3.428253   0.000000
    20  C    2.713774   3.063280   1.773167   2.795470   0.000000
    21  C    3.047557   2.727187   2.791121   1.772288   1.359281
    22  C    1.380327   2.291783   2.789903   3.992857   4.001979
    23  N    2.336642   1.310672   3.998700   2.658358   4.341342
    24  S    2.542129   2.439721   4.263822   4.137445   5.120151
    25  C    3.955208   4.450782   2.675676   4.110426   1.425163
    26  N    5.029770   5.597745   3.642685   5.237162   2.586817
    27  C    4.436049   3.971317   4.106384   2.674416   2.424897
    28  N    5.583831   5.047859   5.232040   3.642352   3.504263
    29  C    2.517432   3.674472   3.286888   5.309014   4.778168
    30  N    3.607292   4.826214   4.047461   6.425950   5.618639
                   21         22         23         24         25
    21  C    0.000000
    22  C    4.384939   0.000000
    23  N    3.909794   2.494036   0.000000
    24  S    5.076167   1.733444   1.664607   0.000000
    25  C    2.428007   5.116215   5.699860   6.371958   0.000000
    26  N    3.509330   6.107712   6.831389   7.434461   1.162408
    27  C    1.426163   5.736923   5.009263   6.301738   2.836178
    28  N    2.587713   6.864751   5.995430   7.349618   3.609722
    29  C    5.449573   1.416040   3.876636   2.767765   5.646781
    30  N    6.435818   2.578302   5.022796   3.797715   6.306769
                   26         27         28         29         30
    26  N    0.000000
    27  C    3.613393   0.000000
    28  N    4.122555   1.162293   0.000000
    29  C    6.480188   6.800997   7.931563   0.000000
    30  N    7.006418   7.769948   8.891861   1.162367   0.000000
 Symmetry turned off by external request.
 Rotational constants (GHZ):      0.1406770      0.0850328      0.0770317
  1404 basis functions,  2412 primitive gaussians,  1674 cartesian basis functions
   124 alpha electrons      124 beta electrons
       nuclear repulsion energy      3586.6645359910 Hartrees.
 IMHF & INEx in M05                 6345064                -5345064
 NAtoms=   30 NActive=   30 NUniq=   30 SFac= 1.00D+00 NAtFMM=   60 NAOKFM=F Big=F
 ExpMin= 3.51D-02 ExpMax= 3.74D+05 ExpMxC= 1.18D+03 IAcc=3 IRadAn=         5 AccDes= 0.00D+00
 Harris functional with IExCor= 1009 and IRadAn=       5 diagonalized for initial guess.
 HarFok:  IExCor= 1009 AccDes= 0.00D+00 IRadAn=         5 IDoV= 1 UseB2=F ITyADJ=14
 ICtDFT=  3500011 ScaDFX=  1.000000  1.000000  1.000000  1.000000
 FoFCou: FMM=F IPFlag=           0 FMFlag=      100000 FMFlg1=           0
         NFxFlg=           0 DoJE=T BraDBF=F KetDBF=T FulRan=T
         wScrn=  0.000000 ICntrl=     500 IOpCl=  0 I1Cent=   200000004 NGrid=           0
         NMat0=    1 NMatS0=      1 NMatT0=    0 NMatD0=    1 NMtDS0=    0 NMtDT0=    0
 Symmetry not used in FoFCou.
