 Entering Gaussian System, Link 0=/data/szalewicgrp/connornm/opt/Gaussian/g09-M05-par/g09/g09
 AtFile(1): aug-cc-pVTZ.gbs
 Initial command:
 /data/szalewicgrp/connornm/opt/Gaussian/g09-M05-par/g09/l1.exe "/scratch/local/Gau-7187.inp" -scrdir="/scratch/local/"
 Entering Link 1 = /data/szalewicgrp/connornm/opt/Gaussian/g09-M05-par/g09/l1.exe PID=      7188.
  
 Copyright (c) 1988,1990,1992,1993,1995,1998,2003,2009,2013,
            Gaussian, Inc.  All Rights Reserved.
  
 This is part of the Gaussian(R) 09 program.  It is based on
 the Gaussian(R) 03 system (copyright 2003, Gaussian, Inc.),
 the Gaussian(R) 98 system (copyright 1998, Gaussian, Inc.),
 the Gaussian(R) 94 system (copyright 1995, Gaussian, Inc.),
 the Gaussian 92(TM) system (copyright 1992, Gaussian, Inc.),
 the Gaussian 90(TM) system (copyright 1990, Gaussian, Inc.),
 the Gaussian 88(TM) system (copyright 1988, Gaussian, Inc.),
 the Gaussian 86(TM) system (copyright 1986, Carnegie Mellon
 University), and the Gaussian 82(TM) system (copyright 1983,
 Carnegie Mellon University). Gaussian is a federally registered
 trademark of Gaussian, Inc.
  
 This software contains proprietary and confidential information,
 including trade secrets, belonging to Gaussian, Inc.
  
 This software is provided under written license and may be
 used, copied, transmitted, or stored only in accord with that
 written license.
  
 The following legend is applicable only to US Government
 contracts under FAR:
  
                    RESTRICTED RIGHTS LEGEND
  
 Use, reproduction and disclosure by the US Government is
 subject to restrictions as set forth in subparagraphs (a)
 and (c) of the Commercial Computer Software - Restricted
 Rights clause in FAR 52.227-19.
  
 Gaussian, Inc.
 340 Quinnipiac St., Bldg. 40, Wallingford CT 06492
  
  
 ---------------------------------------------------------------
 Warning -- This program may not be used in any manner that
 competes with the business of Gaussian, Inc. or will provide
 assistance to any competitor of Gaussian, Inc.  The licensee
 of this program is prohibited from giving any competitor of
 Gaussian, Inc. access to this program.  By using this program,
 the user acknowledges that Gaussian, Inc. is engaged in the
 business of creating and licensing software in the field of
 computational chemistry and represents and warrants to the
 licensee that it is not a competitor of Gaussian, Inc. and that
 it will not use this program in any manner prohibited above.
 ---------------------------------------------------------------
  

 Cite this work as:
 Gaussian 09, Revision D.01,
 M. J. Frisch, G. W. Trucks, H. B. Schlegel, G. E. Scuseria, 
 M. A. Robb, J. R. Cheeseman, G. Scalmani, V. Barone, B. Mennucci, 
 G. A. Petersson, H. Nakatsuji, M. Caricato, X. Li, H. P. Hratchian, 
 A. F. Izmaylov, J. Bloino, G. Zheng, J. L. Sonnenberg, M. Hada, 
 M. Ehara, K. Toyota, R. Fukuda, J. Hasegawa, M. Ishida, T. Nakajima, 
 Y. Honda, O. Kitao, H. Nakai, T. Vreven, J. A. Montgomery, Jr., 
 J. E. Peralta, F. Ogliaro, M. Bearpark, J. J. Heyd, E. Brothers, 
 K. N. Kudin, V. N. Staroverov, T. Keith, R. Kobayashi, J. Normand, 
 K. Raghavachari, A. Rendell, J. C. Burant, S. S. Iyengar, J. Tomasi, 
 M. Cossi, N. Rega, J. M. Millam, M. Klene, J. E. Knox, J. B. Cross, 
 V. Bakken, C. Adamo, J. Jaramillo, R. Gomperts, R. E. Stratmann, 
 O. Yazyev, A. J. Austin, R. Cammi, C. Pomelli, J. W. Ochterski, 
 R. L. Martin, K. Morokuma, V. G. Zakrzewski, G. A. Voth, 
 P. Salvador, J. J. Dannenberg, S. Dapprich, A. D. Daniels, 
 O. Farkas, J. B. Foresman, J. V. Ortiz, J. Cioslowski, 
 and D. J. Fox, Gaussian, Inc., Wallingford CT, 2013.
 
 ******************************************
 Gaussian 09:  AS64L-G09RevD.01 24-Apr-2013
                18-Dec-2018 
 ******************************************
 %Chk=BLIND02262
 %Mem=2GB
 %NProcShared=16
 Will use up to   16 processors via shared memory.
 ------------------------------------------------------------
 #T M05/Gen test Massage Symmetry=None SCF=(fermi,maxcyc=120)
 ------------------------------------------------------------
 -------
 M05 opt
 -------
 Symbolic Z-matrix:
 Charge =  0 Multiplicity = 1
 6                     0.3056   -0.91886   0.32157 
 6                    -0.35873  -0.15449   1.32169 
 16                    1.26661  -0.25225  -0.99014 
 16                   -0.35013   1.61474   1.38755 
 6                     0.40206   1.26804  -1.2824 
 6                    -0.23697   2.00677  -0.33713 
 6                     0.13981  -2.2647    0.57955 
 7                    -0.98505  -0.81243   2.26651 
 16                   -0.78832  -2.44865   2.03198 
 6                     0.46993   1.69828  -2.63937 
 7                     0.57312   2.01982  -3.75165 
 6                    -0.86368   3.24375  -0.67038 
 7                    -1.36202   4.27043  -0.89063 
 6                     0.64114  -3.36841  -0.15233 
 7                     1.05223  -4.286    -0.73554 
 6                     0.50371  -0.65857   7.1768 
 6                    -0.90269  -0.87523   7.14648 
 16                    1.45532  -0.00075   5.85384 
 16                   -1.93781  -0.48213   5.76496 
 6                     0.27418   1.10296   5.12525 
 6                    -1.07069   0.9086    5.09045 
 6                     1.01706  -1.1098    8.37604 
 7                    -1.44985  -1.43142   8.19963 
 16                   -0.27236  -1.77404   9.32526 
 6                     0.87541   2.24009   4.5116 
 7                     1.41305   3.13742   4.00471 
 6                    -1.93114   1.83835   4.43537 
 7                    -2.66628   2.55345   3.88845 
 6                     2.3629   -1.09817   8.8162 
 7                     3.46353  -1.10512   9.18991 
 
                    Distance matrix (angstroms):
                    1          2          3          4          5
     1  C    0.000000
     2  C    1.423315   0.000000
     3  S    1.757418   2.827694   0.000000
     4  S    2.825849   1.770477   3.428253   0.000000
     5  C    2.713774   3.063280   1.773167   2.795470   0.000000
     6  C    3.047557   2.727187   2.791121   1.772288   1.359281
     7  C    1.380327   2.291783   2.789903   3.992857   4.001979
     8  N    2.336642   1.310672   3.998700   2.658358   4.341342
     9  S    2.542129   2.439721   4.263822   4.137445   5.120151
    10  C    3.955208   4.450782   2.675676   4.110426   1.425163
    11  N    5.029770   5.597745   3.642685   5.237162   2.586817
    12  C    4.436049   3.971317   4.106384   2.674416   2.424897
    13  N    5.583831   5.047859   5.232040   3.642352   3.504263
    14  C    2.517432   3.674472   3.286888   5.309014   4.778168
    15  N    3.607292   4.826214   4.047461   6.425950   5.618639
    16  C    6.863026   5.939717   8.212556   6.277928   8.676420
    17  C    6.931179   5.894369   8.443852   6.298457   8.794435
    18  S    5.724571   4.884135   6.851198   5.081057   7.324279
    19  S    5.903735   4.726893   7.480146   5.106792   7.629118
    20  C    5.211914   4.055716   6.341886   3.823877   6.411051
    21  C    5.289228   3.980024   6.616955   3.837874   6.550680
    22  C    8.088080   7.250467   9.408668   7.624385   9.965832
    23  N    8.087531   7.080059   9.655134   7.542741  10.031235
    24  S    9.062655   8.166244  10.540009   8.631167  11.055837
    25  C    5.278259   4.175247   6.052603   3.413607   5.894019
    26  N    5.589753   4.601573   6.038198   3.503835   5.698266
    27  C    5.434013   4.017321   6.635687   3.440751   6.201772
    28  N    5.797552   4.387024   6.865873   3.535565   6.148555
    29  C    8.742042   8.029042   9.903625   8.360933  10.555831
    30  N    9.415657   8.798994  10.449273   9.100463  11.165741
                    6          7          8          9         10
     6  C    0.000000
     7  C    4.384939   0.000000
     8  N    3.909794   2.494036   0.000000
     9  S    5.076167   1.733444   1.664607   0.000000
    10  C    2.428007   5.116215   5.699860   6.371958   0.000000
    11  N    3.509330   6.107712   6.831389   7.434461   1.162408
    12  C    1.426163   5.736923   5.009263   6.301738   2.836178
    13  N    2.587713   6.864751   5.995430   7.349618   3.609722
    14  C    5.449573   1.416040   3.876636   2.767765   5.646781
    15  N    6.435818   2.578302   5.022796   3.797715   6.306769
    16  C    8.006980   6.799688   5.133320   5.598469  10.095206
    17  C    8.046957   6.792790   4.881066   5.352272  10.211271
    18  S    6.724728   5.888472   4.413965   5.062873   8.717358
    19  S    6.806098   5.863660   3.640877   4.373059   9.010232
    20  C    5.560183   5.658847   3.664254   4.828163   7.789869
    21  C    5.599966   5.646528   3.308153   4.550281   7.921315
    22  C    9.338351   7.930233   6.436082   6.730450  11.380861
    23  N    9.282699   7.828604   5.983401   6.285880  11.443981
    24  S   10.375810   8.769154   7.159503   7.342560  12.480402
    25  C    4.980160   6.024553   4.221331   5.558850   7.182928
    26  N    4.780422   6.521938   4.936954   6.319956   6.863267
    27  C    5.067076   5.999259   3.553259   5.045856   7.472396
    28  N    4.904680   6.483629   4.097117   5.656342   7.292433
    29  C   10.009162   8.610767   7.361303   7.601287  11.942933
    30  N   10.683723   9.302152   8.234617   8.433220  12.520091
                   11         12         13         14         15
    11  N    0.000000
    12  C    3.613393   0.000000
    13  N    4.122555   1.162293   0.000000
    14  C    6.480188   6.800997   7.931563   0.000000
    15  N    7.006418   7.769948   8.891861   1.162367   0.000000
    16  C   11.252094   8.869957   9.636359   7.815255   8.721478
    17  C   11.372275   8.835774   9.554265   7.865873   8.808022
    18  S    9.855270   7.646565   8.465706   6.933831   7.870558
    19  S   10.155316   7.513295   8.198493   7.070776   8.103469
    20  C    8.929125   6.282276   6.992905   6.926807   7.999694
    21  C    9.061987   6.219562   6.867319   6.979243   8.089048
    22  C   12.532854  10.214121  10.976246   8.830384   9.649369
    23  N   12.603042  10.043804  10.730876   8.824931   9.708053
    24  S   13.642351  11.200030  11.920038   9.654074  10.453904
    25  C    8.271714   5.557405   6.189708   7.298111   8.375775
    26  N    7.881345   5.201085   5.740126   7.759034   8.815172
    27  C    8.563381   5.402156   5.882615   7.400939   8.552565
    28  N    8.315623   4.950638   5.242967   7.895272   9.054645
    29  C   13.071955  10.920545  11.701256   9.410256  10.154595
    30  N   13.623644  11.613043  12.401601  10.018271  10.697984
                   16         17         18         19         20
    16  C    0.000000
    17  C    1.423315   0.000000
    18  S    1.757418   2.827694   0.000000
    19  S    2.825849   1.770477   3.428253   0.000000
    20  C    2.713774   3.063280   1.773167   2.795470   0.000000
    21  C    3.047557   2.727187   2.791121   1.772288   1.359281
    22  C    1.380327   2.291783   2.789903   3.992857   4.001979
    23  N    2.336642   1.310672   3.998700   2.658358   4.341342
    24  S    2.542129   2.439721   4.263822   4.137445   5.120151
    25  C    3.955208   4.450782   2.675676   4.110426   1.425163
    26  N    5.029770   5.597745   3.642685   5.237162   2.586817
    27  C    4.436049   3.971317   4.106384   2.674416   2.424897
    28  N    5.583831   5.047859   5.232040   3.642352   3.504263
    29  C    2.517432   3.674472   3.286888   5.309014   4.778168
    30  N    3.607292   4.826214   4.047461   6.425950   5.618639
                   21         22         23         24         25
    21  C    0.000000
    22  C    4.384939   0.000000
    23  N    3.909794   2.494036   0.000000
    24  S    5.076167   1.733444   1.664607   0.000000
    25  C    2.428007   5.116215   5.699860   6.371958   0.000000
    26  N    3.509330   6.107712   6.831389   7.434461   1.162408
    27  C    1.426163   5.736923   5.009263   6.301738   2.836178
    28  N    2.587713   6.864751   5.995430   7.349618   3.609722
    29  C    5.449573   1.416040   3.876636   2.767765   5.646781
    30  N    6.435818   2.578302   5.022796   3.797715   6.306769
                   26         27         28         29         30
    26  N    0.000000
    27  C    3.613393   0.000000
    28  N    4.122555   1.162293   0.000000
    29  C    6.480188   6.800997   7.931563   0.000000
    30  N    7.006418   7.769948   8.891861   1.162367   0.000000
 Symmetry turned off by external request.
 Rotational constants (GHZ):      0.2025891      0.0643053      0.0575350
  1404 basis functions,  2412 primitive gaussians,  1674 cartesian basis functions
   124 alpha electrons      124 beta electrons
       nuclear repulsion energy      3547.2795733795 Hartrees.
 IMHF & INEx in M05                  599485                  400514
 NAtoms=   30 NActive=   30 NUniq=   30 SFac= 1.00D+00 NAtFMM=   60 NAOKFM=F Big=F
 ExpMin= 3.51D-02 ExpMax= 3.74D+05 ExpMxC= 1.18D+03 IAcc=3 IRadAn=         5 AccDes= 0.00D+00
 Harris functional with IExCor= 1009 and IRadAn=       5 diagonalized for initial guess.
 HarFok:  IExCor= 1009 AccDes= 0.00D+00 IRadAn=         5 IDoV= 1 UseB2=F ITyADJ=14
 ICtDFT=  3500011 ScaDFX=  1.000000  1.000000  1.000000  1.000000
 FoFCou: FMM=F IPFlag=           0 FMFlag=      100000 FMFlg1=           0
         NFxFlg=           0 DoJE=T BraDBF=F KetDBF=T FulRan=T
         wScrn=  0.000000 ICntrl=     500 IOpCl=  0 I1Cent=   200000004 NGrid=           0
         NMat0=    1 NMatS0=      1 NMatT0=    0 NMatD0=    1 NMtDS0=    0 NMtDT0=    0
 Symmetry not used in FoFCou.
 Restarting incremental Fock formation.
 Restarting incremental Fock formation.
 Restarting incremental Fock formation.
 Restarting incremental Fock formation.
