 Entering Gaussian System, Link 0=/data/szalewicgrp/connornm/opt/Gaussian/g09-M05-par/g09/g09
 AtFile(1): aug-cc-pVTZ.gbs
 Initial command:
 /data/szalewicgrp/connornm/opt/Gaussian/g09-M05-par/g09/l1.exe "/scratch/local/Gau-8222.inp" -scrdir="/scratch/local/"
 Entering Link 1 = /data/szalewicgrp/connornm/opt/Gaussian/g09-M05-par/g09/l1.exe PID=      8223.
  
 Copyright (c) 1988,1990,1992,1993,1995,1998,2003,2009,2013,
            Gaussian, Inc.  All Rights Reserved.
  
 This is part of the Gaussian(R) 09 program.  It is based on
 the Gaussian(R) 03 system (copyright 2003, Gaussian, Inc.),
 the Gaussian(R) 98 system (copyright 1998, Gaussian, Inc.),
 the Gaussian(R) 94 system (copyright 1995, Gaussian, Inc.),
 the Gaussian 92(TM) system (copyright 1992, Gaussian, Inc.),
 the Gaussian 90(TM) system (copyright 1990, Gaussian, Inc.),
 the Gaussian 88(TM) system (copyright 1988, Gaussian, Inc.),
 the Gaussian 86(TM) system (copyright 1986, Carnegie Mellon
 University), and the Gaussian 82(TM) system (copyright 1983,
 Carnegie Mellon University). Gaussian is a federally registered
 trademark of Gaussian, Inc.
  
 This software contains proprietary and confidential information,
 including trade secrets, belonging to Gaussian, Inc.
  
 This software is provided under written license and may be
 used, copied, transmitted, or stored only in accord with that
 written license.
  
 The following legend is applicable only to US Government
 contracts under FAR:
  
                    RESTRICTED RIGHTS LEGEND
  
 Use, reproduction and disclosure by the US Government is
 subject to restrictions as set forth in subparagraphs (a)
 and (c) of the Commercial Computer Software - Restricted
 Rights clause in FAR 52.227-19.
  
 Gaussian, Inc.
 340 Quinnipiac St., Bldg. 40, Wallingford CT 06492
  
  
 ---------------------------------------------------------------
 Warning -- This program may not be used in any manner that
 competes with the business of Gaussian, Inc. or will provide
 assistance to any competitor of Gaussian, Inc.  The licensee
 of this program is prohibited from giving any competitor of
 Gaussian, Inc. access to this program.  By using this program,
 the user acknowledges that Gaussian, Inc. is engaged in the
 business of creating and licensing software in the field of
 computational chemistry and represents and warrants to the
 licensee that it is not a competitor of Gaussian, Inc. and that
 it will not use this program in any manner prohibited above.
 ---------------------------------------------------------------
  

 Cite this work as:
 Gaussian 09, Revision D.01,
 M. J. Frisch, G. W. Trucks, H. B. Schlegel, G. E. Scuseria, 
 M. A. Robb, J. R. Cheeseman, G. Scalmani, V. Barone, B. Mennucci, 
 G. A. Petersson, H. Nakatsuji, M. Caricato, X. Li, H. P. Hratchian, 
 A. F. Izmaylov, J. Bloino, G. Zheng, J. L. Sonnenberg, M. Hada, 
 M. Ehara, K. Toyota, R. Fukuda, J. Hasegawa, M. Ishida, T. Nakajima, 
 Y. Honda, O. Kitao, H. Nakai, T. Vreven, J. A. Montgomery, Jr., 
 J. E. Peralta, F. Ogliaro, M. Bearpark, J. J. Heyd, E. Brothers, 
 K. N. Kudin, V. N. Staroverov, T. Keith, R. Kobayashi, J. Normand, 
 K. Raghavachari, A. Rendell, J. C. Burant, S. S. Iyengar, J. Tomasi, 
 M. Cossi, N. Rega, J. M. Millam, M. Klene, J. E. Knox, J. B. Cross, 
 V. Bakken, C. Adamo, J. Jaramillo, R. Gomperts, R. E. Stratmann, 
 O. Yazyev, A. J. Austin, R. Cammi, C. Pomelli, J. W. Ochterski, 
 R. L. Martin, K. Morokuma, V. G. Zakrzewski, G. A. Voth, 
 P. Salvador, J. J. Dannenberg, S. Dapprich, A. D. Daniels, 
 O. Farkas, J. B. Foresman, J. V. Ortiz, J. Cioslowski, 
 and D. J. Fox, Gaussian, Inc., Wallingford CT, 2013.
 
 ******************************************
 Gaussian 09:  AS64L-G09RevD.01 24-Apr-2013
                 6-Dec-2018 
 ******************************************
 %Chk=CH400017
 %Mem=2GB
 %NProcShared=16
 Will use up to   16 processors via shared memory.
 -----------------------------------------------------------
 #T M05/Gen test Massage Symmetry=None SCF=(tight,maxcyc=60)
 -----------------------------------------------------------
 -------
 M05 opt
 -------
 Symbolic Z-matrix:
 Charge =  0 Multiplicity = 1
 6                     0.        0.        0. 
 1                     0.65023   0.        0.8962 
 1                    -0.99804  -0.39749   0.26813 
 1                    -0.10472   1.0347   -0.38001 
 1                     0.45253  -0.63721  -0.78432 
 0                    -0.43027   0.       -0.59303 
 0                     0.66042   0.26303  -0.17743 
 0                     0.0693   -0.68468   0.25146 
 0                    -0.29945   0.42165   0.519 
 6                     0.        0.        2.77979 
 1                     0.30384  -1.05649   2.64756 
 1                     0.81752   0.66456   2.43919 
 1                    -0.91086   0.19958   2.18272 
 1                    -0.21051   0.19236   3.84968 
 0                    -0.20106   0.6991    2.86729 
 0                    -0.54097  -0.43975   3.00517 
 0                     0.60273  -0.13206   3.17487 
 0                     0.13929  -0.12729   2.07182 
 
                    Distance matrix (angstroms):
                    1          2          3          4          5
     1  C    0.000000
     2  H    1.107243   0.000000
     3  H    1.107243   1.808119   0.000000
     4  H    1.107242   1.808119   1.808119   0.000000
     5  H    1.107243   1.808119   1.808119   1.808119   0.000000
     6  Bq   0.732679   1.839921   1.105427   1.105427   1.105427
     7  Bq   0.732679   1.105427   1.839921   1.105427   1.105427
     8  Bq   0.732679   1.105427   1.105427   1.839921   1.105427
     9  Bq   0.732679   1.105427   1.105427   1.105427   1.839921
    10  C    2.779789   1.992659   2.731762   3.326547   3.648796
    11  H    2.866718   2.074466   2.791215   3.702191   3.460596
    12  H    2.656995   1.688319   3.022867   2.989220   3.495546
    13  H    2.373560   2.032728   2.007427   2.813346   3.370820
    14  H    3.860228   3.082352   3.714250   4.314050   4.754136
    15  Bq   2.958123   2.258007   2.931435   3.266015   3.942988
    16  Bq   3.084973   2.461719   2.775263   3.718031   3.922535
    17  Bq   3.234278   2.282988   3.328979   3.807761   3.994118
    18  Bq   2.080400   1.288155   2.149387   2.724201   2.918170
                    6          7          8          9         10
     6  Bq   0.000000
     7  Bq   1.196459   0.000000
     8  Bq   1.196459   1.196459   0.000000
     9  Bq   1.196459   1.196459   1.196459   0.000000
    10  C    3.400154   3.041456   2.620312   2.319188   0.000000
    11  H    3.486622   3.138283   2.436094   2.660761   1.107243
    12  H    3.345591   2.651901   2.677020   2.234672   1.107243
    13  H    2.824115   2.836065   2.339316   1.786374   1.107243
    14  H    4.452303   4.120812   3.714120   3.339751   1.107243
    15  Bq   3.537666   3.194147   2.971612   2.366668   0.732679
    16  Bq   3.626662   3.473633   2.831135   2.642230   0.732679
    17  Bq   3.909175   3.375994   3.022630   2.859057   0.732679
    18  Bq   2.728015   2.341591   1.905076   1.704436   0.732679
                   11         12         13         14         15
    11  H    0.000000
    12  H    1.808119   0.000000
    13  H    1.808119   1.808119   0.000000
    14  H    1.808119   1.808119   1.808119   0.000000
    15  Bq   1.839921   1.105427   1.105427   1.105427   0.000000
    16  Bq   1.105427   1.839921   1.105427   1.105427   1.196459
    17  Bq   1.105427   1.105427   1.839921   1.105427   1.196459
    18  Bq   1.105427   1.105427   1.105427   1.839921   1.196459
                   16         17         18
    16  Bq   0.000000
    17  Bq   1.196459   0.000000
    18  Bq   1.196459   1.196459   0.000000
 Symmetry turned off by external request.
 Rotational constants (GHZ):     76.6916054      7.3747292      7.3747292
 Warning:  center   6 has no basis functions!
 Warning:  center   7 has no basis functions!
 Warning:  center   8 has no basis functions!
 Warning:  center   9 has no basis functions!
 Warning:  center  15 has no basis functions!
 Warning:  center  16 has no basis functions!
 Warning:  center  17 has no basis functions!
 Warning:  center  18 has no basis functions!
   276 basis functions,   360 primitive gaussians,   310 cartesian basis functions
    10 alpha electrons       10 beta electrons
       nuclear repulsion energy        45.3231070310 Hartrees.
 IMHF & INEx in M05                  614413                  385587
 NAtoms=   18 NActive=   18 NUniq=   18 SFac= 1.00D+00 NAtFMM=   60 NAOKFM=F Big=F
 ExpMin= 2.53D-02 ExpMax= 8.24D+03 ExpMxC= 2.81D+02 IAcc=3 IRadAn=         5 AccDes= 0.00D+00
 Harris functional with IExCor= 1009 and IRadAn=       5 diagonalized for initial guess.
 HarFok:  IExCor= 1009 AccDes= 0.00D+00 IRadAn=         5 IDoV= 1 UseB2=F ITyADJ=14
 ICtDFT=  3500011 ScaDFX=  1.000000  1.000000  1.000000  1.000000
 FoFCou: FMM=F IPFlag=           0 FMFlag=      100000 FMFlg1=           0
         NFxFlg=           0 DoJE=T BraDBF=F KetDBF=T FulRan=T
         wScrn=  0.000000 ICntrl=     500 IOpCl=  0 I1Cent=   200000004 NGrid=           0
         NMat0=    1 NMatS0=      1 NMatT0=    0 NMatD0=    1 NMtDS0=    0 NMtDT0=    0
 Symmetry not used in FoFCou.
 SCF Done:  E(RM05) =  -81.7934685761     A.U. after    9 cycles
            NFock=  9  Conv=0.26D-08     -V/T= 2.0105

 **********************************************************************

            Population analysis using the SCF density.

 **********************************************************************

 Alpha  occ. eigenvalues --  -10.74335 -10.73353  -0.84959  -0.80853  -0.52709
 Alpha  occ. eigenvalues --   -0.50935  -0.49512  -0.47780  -0.46484  -0.43720
 Alpha virt. eigenvalues --   -0.00402   0.01714   0.02350   0.02500   0.03957
 Alpha virt. eigenvalues --    0.04641   0.04920   0.06493   0.07773   0.08245
 Alpha virt. eigenvalues --    0.09390   0.10339   0.10635   0.10966   0.11644
 Alpha virt. eigenvalues --    0.12962   0.14191   0.15006   0.15407   0.16943
 Alpha virt. eigenvalues --    0.17938   0.18893   0.21590   0.24023   0.24656
 Alpha virt. eigenvalues --    0.25015   0.25884   0.26550   0.27427   0.28042
 Alpha virt. eigenvalues --    0.29150   0.29244   0.30108   0.31062   0.32152
 Alpha virt. eigenvalues --    0.32590   0.33281   0.33337   0.34520   0.34910
 Alpha virt. eigenvalues --    0.35140   0.36277   0.36751   0.37457   0.39268
 Alpha virt. eigenvalues --    0.40393   0.41055   0.41583   0.42756   0.43643
 Alpha virt. eigenvalues --    0.44213   0.45754   0.46423   0.48385   0.48615
 Alpha virt. eigenvalues --    0.50721   0.51293   0.55387   0.61702   0.62291
 Alpha virt. eigenvalues --    0.63118   0.64902   0.65663   0.67376   0.70151
 Alpha virt. eigenvalues --    0.71165   0.71834   0.72365   0.73573   0.75784
 Alpha virt. eigenvalues --    0.76379   0.76861   0.77729   0.79136   0.79829
 Alpha virt. eigenvalues --    0.80788   0.81592   0.82978   0.83960   0.86302
 Alpha virt. eigenvalues --    0.87272   0.88371   0.89370   0.89926   0.90813
 Alpha virt. eigenvalues --    0.91977   0.93225   0.94655   0.96944   0.97656
 Alpha virt. eigenvalues --    0.98975   0.99740   1.00797   1.01528   1.03288
 Alpha virt. eigenvalues --    1.04813   1.06003   1.06925   1.08503   1.09562
 Alpha virt. eigenvalues --    1.10726   1.11561   1.13457   1.14898   1.16227
 Alpha virt. eigenvalues --    1.18630   1.19787   1.24479   1.25352   1.27790
 Alpha virt. eigenvalues --    1.28422   1.30776   1.34130   1.37492   1.38390
 Alpha virt. eigenvalues --    1.40384   1.43087   1.43696   1.45019   1.45805
 Alpha virt. eigenvalues --    1.47623   1.47955   1.48442   1.49734   1.51715
 Alpha virt. eigenvalues --    1.53610   1.54495   1.55754   1.59794   1.61421
 Alpha virt. eigenvalues --    1.61944   1.64505   1.65370   1.66469   1.68437
 Alpha virt. eigenvalues --    1.69527   1.70343   1.72981   1.74336   1.77281
 Alpha virt. eigenvalues --    1.78872   1.80800   1.84204   1.85171   1.88398
 Alpha virt. eigenvalues --    1.91985   1.93867   1.96328   1.97381   1.98674
 Alpha virt. eigenvalues --    2.00467   2.01374   2.04078   2.05464   2.06081
 Alpha virt. eigenvalues --    2.08446   2.12414   2.17662   2.19480   2.31066
 Alpha virt. eigenvalues --    2.45776   2.51463   2.82254   2.90763   2.93785
 Alpha virt. eigenvalues --    2.98220   3.00252   3.01620   3.04751   3.10907
 Alpha virt. eigenvalues --    3.20527   3.22780   3.23639   3.26497   3.26965
 Alpha virt. eigenvalues --    3.28368   3.29469   3.31197   3.33439   3.35553
 Alpha virt. eigenvalues --    3.37350   3.40426   3.44679   3.45776   3.51845
 Alpha virt. eigenvalues --    3.54684   3.57666   3.60020   3.60398   3.62408
 Alpha virt. eigenvalues --    3.65065   3.65813   3.70396   3.72819   3.74410
 Alpha virt. eigenvalues --    3.75508   3.75750   3.78941   3.79124   3.81332
 Alpha virt. eigenvalues --    3.83252   3.85667   3.87741   3.90579   3.91945
 Alpha virt. eigenvalues --    3.93081   3.94224   3.99258   4.08426   4.16273
 Alpha virt. eigenvalues --    4.19576   4.20471   4.21027   4.23652   4.28935
 Alpha virt. eigenvalues --    4.32199   4.34244   4.37134   4.39810   4.41230
 Alpha virt. eigenvalues --    4.42866   4.44951   4.45563   4.50056   4.51784
 Alpha virt. eigenvalues --    4.54149   4.55139   4.58609   4.65689   4.68006
 Alpha virt. eigenvalues --    4.71385   4.75562   4.81645   4.82576   4.86899
 Alpha virt. eigenvalues --    4.89815   4.94937   4.96499   5.02408   5.03307
 Alpha virt. eigenvalues --    5.15954   5.16499   5.17670   5.18221   5.22543
 Alpha virt. eigenvalues --    5.26315   5.29012   5.32661   5.34975   5.37870
 Alpha virt. eigenvalues --    5.44025   5.44795   5.59067   5.62167   5.65451
 Alpha virt. eigenvalues --    5.70505   5.72807   5.79340   6.09918   6.11039
 Alpha virt. eigenvalues --    6.12484   6.15634   6.20761   6.25306  17.05945
 Alpha virt. eigenvalues --   17.51475
          Condensed to atoms (all electrons):
 Mulliken charges:
               1
     1  C   -1.954331
     2  H    0.629544
     3  H    0.458213
     4  H    0.458760
     5  H    0.361049
     6  Bq   0.000000
     7  Bq   0.000000
     8  Bq   0.000000
     9  Bq   0.000000
    10  C   -1.990527
    11  H    0.486032
    12  H    0.554587
    13  H    0.559172
    14  H    0.437502
    15  Bq   0.000000
    16  Bq   0.000000
    17  Bq   0.000000
    18  Bq   0.000000
 Sum of Mulliken charges =  -0.00000
 Mulliken charges with hydrogens summed into heavy atoms:
               1
     1  C   -1.954331
     6  Bq   0.458213
     7  Bq   0.990593
     8  Bq   0.000000
     9  Bq   0.458760
    10  C   -1.990527
    15  Bq   0.554587
    16  Bq   0.923534
    17  Bq   0.000000
    18  Bq   0.559172
 Electronic spatial extent (au):  <R**2>=            349.3781
 Charge=             -0.0000 electrons
 Dipole moment (field-independent basis, Debye):
    X=              0.0219    Y=              0.0058    Z=              0.1640  Tot=              0.1655

 Test job not archived.
 1\1\GINC-CHIMERA-NODE28\SP\RM05\Gen\C2H8\CONNORNM\06-Dec-2018\0\\#T M0
 5/Gen test Massage Symmetry=None SCF=(tight,maxcyc=60)\\M05 opt\\0,1\C
 ,0,0.,0.,0.\H,0,0.65023301,0.,0.89620477\H,0,-0.99804416,-0.39749237,0
 .26812987\H,0,-0.10472189,1.03470302,-0.38001176\H,0,0.45253305,-0.637
 21065,-0.78432288\Bq,0,-0.43026872,0.,-0.59303184\Bq,0,0.66042046,0.26
 302653,-0.17742547\Bq,0,0.06929601,-0.68467817,0.25145936\Bq,0,-0.2994
 4776,0.42165164,0.51899795\C,0,0.,0.,2.77978855\H,0,0.3038441,-1.05649
 431,2.64755958\H,0,0.81752323,0.66455516,2.43918884\H,0,-0.91086228,0.
 19957608,2.18272468\H,0,-0.21050506,0.19236307,3.84968108\Bq,0,-0.2010
 581,0.69909778,2.86728639\Bq,0,-0.54096711,-0.4397459,3.00516837\Bq,0,
 0.60273093,-0.13206242,3.17487446\Bq,0,0.13929428,-0.12728946,2.071824
 96\\Version=AS64L-G09RevD.01\HF=-81.7934686\RMSD=2.603e-09\Dipole=0.00
 86051,0.002281,0.0645087\Quadrupole=0.1982215,0.1644975,-0.362719,0.02
 32186,0.0501606,-0.0516399\PG=Unknown\\@


 FIREWORKS ENDED
 AND SPECTATORS GONE AWAY....
 AH, HOW VAST AND DARK
                     SHIKI
 Job cpu time:       0 days  0 hours 16 minutes 49.8 seconds.
 File lengths (MBytes):  RWF=     41 Int=      0 D2E=      0 Chk=      4 Scr=      1
 Normal termination of Gaussian 09 at Thu Dec  6 13:21:51 2018.
