 Entering Gaussian System, Link 0=/data/szalewicgrp/connornm/opt/Gaussian/g09-M05-par/g09/g09
 AtFile(1): aug-cc-pVTZ.gbs
 Initial command:
 /data/szalewicgrp/connornm/opt/Gaussian/g09-M05-par/g09/l1.exe "/scratch/local/Gau-33013.inp" -scrdir="/scratch/local/"
 Entering Link 1 = /data/szalewicgrp/connornm/opt/Gaussian/g09-M05-par/g09/l1.exe PID=     33014.
  
 Copyright (c) 1988,1990,1992,1993,1995,1998,2003,2009,2013,
            Gaussian, Inc.  All Rights Reserved.
  
 This is part of the Gaussian(R) 09 program.  It is based on
 the Gaussian(R) 03 system (copyright 2003, Gaussian, Inc.),
 the Gaussian(R) 98 system (copyright 1998, Gaussian, Inc.),
 the Gaussian(R) 94 system (copyright 1995, Gaussian, Inc.),
 the Gaussian 92(TM) system (copyright 1992, Gaussian, Inc.),
 the Gaussian 90(TM) system (copyright 1990, Gaussian, Inc.),
 the Gaussian 88(TM) system (copyright 1988, Gaussian, Inc.),
 the Gaussian 86(TM) system (copyright 1986, Carnegie Mellon
 University), and the Gaussian 82(TM) system (copyright 1983,
 Carnegie Mellon University). Gaussian is a federally registered
 trademark of Gaussian, Inc.
  
 This software contains proprietary and confidential information,
 including trade secrets, belonging to Gaussian, Inc.
  
 This software is provided under written license and may be
 used, copied, transmitted, or stored only in accord with that
 written license.
  
 The following legend is applicable only to US Government
 contracts under FAR:
  
                    RESTRICTED RIGHTS LEGEND
  
 Use, reproduction and disclosure by the US Government is
 subject to restrictions as set forth in subparagraphs (a)
 and (c) of the Commercial Computer Software - Restricted
 Rights clause in FAR 52.227-19.
  
 Gaussian, Inc.
 340 Quinnipiac St., Bldg. 40, Wallingford CT 06492
  
  
 ---------------------------------------------------------------
 Warning -- This program may not be used in any manner that
 competes with the business of Gaussian, Inc. or will provide
 assistance to any competitor of Gaussian, Inc.  The licensee
 of this program is prohibited from giving any competitor of
 Gaussian, Inc. access to this program.  By using this program,
 the user acknowledges that Gaussian, Inc. is engaged in the
 business of creating and licensing software in the field of
 computational chemistry and represents and warrants to the
 licensee that it is not a competitor of Gaussian, Inc. and that
 it will not use this program in any manner prohibited above.
 ---------------------------------------------------------------
  

 Cite this work as:
 Gaussian 09, Revision D.01,
 M. J. Frisch, G. W. Trucks, H. B. Schlegel, G. E. Scuseria, 
 M. A. Robb, J. R. Cheeseman, G. Scalmani, V. Barone, B. Mennucci, 
 G. A. Petersson, H. Nakatsuji, M. Caricato, X. Li, H. P. Hratchian, 
 A. F. Izmaylov, J. Bloino, G. Zheng, J. L. Sonnenberg, M. Hada, 
 M. Ehara, K. Toyota, R. Fukuda, J. Hasegawa, M. Ishida, T. Nakajima, 
 Y. Honda, O. Kitao, H. Nakai, T. Vreven, J. A. Montgomery, Jr., 
 J. E. Peralta, F. Ogliaro, M. Bearpark, J. J. Heyd, E. Brothers, 
 K. N. Kudin, V. N. Staroverov, T. Keith, R. Kobayashi, J. Normand, 
 K. Raghavachari, A. Rendell, J. C. Burant, S. S. Iyengar, J. Tomasi, 
 M. Cossi, N. Rega, J. M. Millam, M. Klene, J. E. Knox, J. B. Cross, 
 V. Bakken, C. Adamo, J. Jaramillo, R. Gomperts, R. E. Stratmann, 
 O. Yazyev, A. J. Austin, R. Cammi, C. Pomelli, J. W. Ochterski, 
 R. L. Martin, K. Morokuma, V. G. Zakrzewski, G. A. Voth, 
 P. Salvador, J. J. Dannenberg, S. Dapprich, A. D. Daniels, 
 O. Farkas, J. B. Foresman, J. V. Ortiz, J. Cioslowski, 
 and D. J. Fox, Gaussian, Inc., Wallingford CT, 2013.
 
 ******************************************
 Gaussian 09:  AS64L-G09RevD.01 24-Apr-2013
                 6-Dec-2018 
 ******************************************
 %Chk=CH400315
 %Mem=2GB
 %NProcShared=16
 Will use up to   16 processors via shared memory.
 -----------------------------------------------------------
 #T M05/Gen test Massage Symmetry=None SCF=(tight,maxcyc=60)
 -----------------------------------------------------------
 -------
 M05 opt
 -------
 Symbolic Z-matrix:
 Charge =  0 Multiplicity = 1
 6                     0.        0.        0. 
 1                     0.01422   0.       -1.10715 
 1                     0.65265  -0.81088   0.3775 
 1                     0.36875   0.97481   0.37385 
 1                    -1.03562  -0.16393   0.35581 
 0                    -0.00941   0.        0.73262 
 0                    -0.43187   0.53657  -0.24979 
 0                    -0.244    -0.64504  -0.24738 
 0                     0.68529   0.10847  -0.23544 
 6                     0.        0.        3.93531 
 1                     0.04179  -0.19484   2.84615 
 1                    -0.82849   0.70149   4.15324 
 1                    -0.17103  -0.95199   4.47425 
 1                     0.95773   0.44533   4.2676 
 0                    -0.02765   0.12893   4.65603 
 0                     0.54823  -0.46419   3.7911 
 0                     0.11317   0.62994   3.57869 
 0                    -0.63374  -0.29468   3.71543 
 
                    Distance matrix (angstroms):
                    1          2          3          4          5
     1  C    0.000000
     2  H    1.107243   0.000000
     3  H    1.107242   1.808119   0.000000
     4  H    1.107243   1.808119   1.808119   0.000000
     5  H    1.107242   1.808119   1.808119   1.808119   0.000000
     6  Bq   0.732679   1.839921   1.105427   1.105427   1.105427
     7  Bq   0.732679   1.105427   1.839921   1.105427   1.105427
     8  Bq   0.732679   1.105427   1.105427   1.839921   1.105427
     9  Bq   0.732679   1.105427   1.105427   1.105427   1.839921
    10  C    3.935312   5.042483   3.706958   3.710828   3.729913
    11  H    2.853115   3.958194   2.616660   2.754493   2.713591
    12  H    4.292777   5.373456   4.328665   3.973905   3.900306
    13  H    4.577606   5.665040   4.181123   4.562589   4.281376
    14  H    4.396361   5.475079   4.099276   3.973482   4.432471
    15  Bq   4.657895   5.764773   4.433045   4.382888   4.426474
    16  Bq   3.858560   4.949093   3.432756   3.712216   3.794733
    17  Bq   3.635468   4.729026   3.551708   3.233455   3.512394
    18  Bq   3.780595   4.874834   3.614290   3.712515   3.386101
                    6          7          8          9         10
     6  Bq   0.000000
     7  Bq   1.196459   0.000000
     8  Bq   1.196459   1.196459   0.000000
     9  Bq   1.196459   1.196459   1.196459   0.000000
    10  C    3.202708   4.241408   4.239168   4.228070   0.000000
    11  H    2.123109   3.216236   3.139154   3.162639   1.107243
    12  H    3.586596   4.423942   4.638997   4.680147   1.107242
    13  H    3.864225   4.959887   4.732165   4.902967   1.107242
    14  H    3.691855   4.727175   4.797724   4.523837   1.107243
    15  Bq   3.925570   4.939298   4.968829   4.943196   0.732679
    16  Bq   3.143368   4.276793   4.119429   4.069373   0.732679
    17  Bq   2.917526   3.868211   4.048698   3.891892   0.732679
    18  Bq   3.061667   4.056446   3.997316   4.184708   0.732679
                   11         12         13         14         15
    11  H    0.000000
    12  H    1.808119   0.000000
    13  H    1.808119   1.808119   0.000000
    14  H    1.808119   1.808119   1.808119   0.000000
    15  Bq   1.839921   1.105427   1.105427   1.105427   0.000000
    16  Bq   1.105427   1.839921   1.105427   1.105427   1.196459
    17  Bq   1.105427   1.105427   1.839921   1.105427   1.196459
    18  Bq   1.105427   1.105427   1.105427   1.839921   1.196459
                   16         17         18
    16  Bq   0.000000
    17  Bq   1.196459   0.000000
    18  Bq   1.196459   1.196459   0.000000
 Symmetry turned off by external request.
 Rotational constants (GHZ):     76.6916057      3.8659534      3.8659534
 Warning:  center   6 has no basis functions!
 Warning:  center   7 has no basis functions!
 Warning:  center   8 has no basis functions!
 Warning:  center   9 has no basis functions!
 Warning:  center  15 has no basis functions!
 Warning:  center  16 has no basis functions!
 Warning:  center  17 has no basis functions!
 Warning:  center  18 has no basis functions!
   276 basis functions,   360 primitive gaussians,   310 cartesian basis functions
    10 alpha electrons       10 beta electrons
       nuclear repulsion energy        39.9050172591 Hartrees.
 IMHF & INEx in M05                  614413                  385587
 NAtoms=   18 NActive=   18 NUniq=   18 SFac= 1.00D+00 NAtFMM=   60 NAOKFM=F Big=F
 ExpMin= 2.53D-02 ExpMax= 8.24D+03 ExpMxC= 2.81D+02 IAcc=3 IRadAn=         5 AccDes= 0.00D+00
 Harris functional with IExCor= 1009 and IRadAn=       5 diagonalized for initial guess.
 HarFok:  IExCor= 1009 AccDes= 0.00D+00 IRadAn=         5 IDoV= 1 UseB2=F ITyADJ=14
 ICtDFT=  3500011 ScaDFX=  1.000000  1.000000  1.000000  1.000000
 FoFCou: FMM=F IPFlag=           0 FMFlag=      100000 FMFlg1=           0
         NFxFlg=           0 DoJE=T BraDBF=F KetDBF=T FulRan=T
         wScrn=  0.000000 ICntrl=     500 IOpCl=  0 I1Cent=   200000004 NGrid=           0
         NMat0=    1 NMatS0=      1 NMatT0=    0 NMatD0=    1 NMtDS0=    0 NMtDT0=    0
 Symmetry not used in FoFCou.
 SCF Done:  E(RM05) =  -91.7632885151     A.U. after   12 cycles
            NFock= 12  Conv=0.42D-08     -V/T= 2.0334

 **********************************************************************

            Population analysis using the SCF density.

 **********************************************************************

 Alpha  occ. eigenvalues --  -12.05310 -12.05219  -0.99704  -0.99270  -0.71993
 Alpha  occ. eigenvalues --   -0.71261  -0.71253  -0.71097  -0.71088  -0.70421
 Alpha virt. eigenvalues --   -0.10998  -0.07229  -0.04041  -0.03842  -0.02413
 Alpha virt. eigenvalues --   -0.01949  -0.01858  -0.01727  -0.00365  -0.00198
 Alpha virt. eigenvalues --    0.00041   0.01137   0.01351   0.03372   0.03806
 Alpha virt. eigenvalues --    0.05229   0.05836   0.06721   0.06876   0.07608
 Alpha virt. eigenvalues --    0.07999   0.08107   0.10227   0.10450   0.11126
 Alpha virt. eigenvalues --    0.13733   0.16589   0.17783   0.18067   0.18394
 Alpha virt. eigenvalues --    0.19119   0.19231   0.19892   0.20882   0.21199
 Alpha virt. eigenvalues --    0.22405   0.22821   0.23231   0.23385   0.24174
 Alpha virt. eigenvalues --    0.24438   0.24899   0.25146   0.25221   0.25865
 Alpha virt. eigenvalues --    0.26278   0.26338   0.29287   0.30544   0.31512
 Alpha virt. eigenvalues --    0.32117   0.32480   0.34950   0.35607   0.37577
 Alpha virt. eigenvalues --    0.39375   0.40093   0.40702   0.41819   0.43627
 Alpha virt. eigenvalues --    0.43812   0.45745   0.50094   0.51615   0.52705
 Alpha virt. eigenvalues --    0.56460   0.56631   0.56931   0.57368   0.58465
 Alpha virt. eigenvalues --    0.60232   0.61566   0.62048   0.62554   0.63495
 Alpha virt. eigenvalues --    0.63909   0.64812   0.66340   0.67123   0.67764
 Alpha virt. eigenvalues --    0.69048   0.70441   0.70833   0.71245   0.72020
 Alpha virt. eigenvalues --    0.72287   0.72646   0.74531   0.75651   0.76069
 Alpha virt. eigenvalues --    0.77456   0.77941   0.78377   0.78614   0.80606
 Alpha virt. eigenvalues --    0.80997   0.81959   0.83260   0.84824   0.86088
 Alpha virt. eigenvalues --    0.86688   0.88001   0.88362   0.90134   0.92046
 Alpha virt. eigenvalues --    0.92964   0.93667   0.93925   0.95627   0.96172
 Alpha virt. eigenvalues --    0.97539   0.98850   1.02464   1.02916   1.05714
 Alpha virt. eigenvalues --    1.08516   1.10636   1.17847   1.24431   1.24885
 Alpha virt. eigenvalues --    1.25128   1.25626   1.26071   1.26486   1.27324
 Alpha virt. eigenvalues --    1.28204   1.29172   1.29341   1.29698   1.34030
 Alpha virt. eigenvalues --    1.35526   1.36273   1.38987   1.40567   1.42655
 Alpha virt. eigenvalues --    1.44655   1.45320   1.46693   1.47287   1.48909
 Alpha virt. eigenvalues --    1.50069   1.50335   1.53934   1.55576   1.56256
 Alpha virt. eigenvalues --    1.60316   1.61660   1.63173   1.63728   1.65794
 Alpha virt. eigenvalues --    1.74212   1.74522   1.76621   1.78349   1.80248
 Alpha virt. eigenvalues --    1.83299   1.89082   1.89724   1.94037   1.96349
 Alpha virt. eigenvalues --    2.10984   2.22724   2.39149   2.45576   2.46073
 Alpha virt. eigenvalues --    2.49281   2.50792   2.51386   2.55167   2.60616
 Alpha virt. eigenvalues --    2.95310   2.95803   2.98070   2.98226   2.99138
 Alpha virt. eigenvalues --    2.99421   3.00346   3.01299   3.03743   3.03888
 Alpha virt. eigenvalues --    3.04356   3.05136   3.07035   3.12157   3.13020
 Alpha virt. eigenvalues --    3.15308   3.22099   3.22118   3.22814   3.23514
 Alpha virt. eigenvalues --    3.25520   3.37434   3.43289   3.44256   3.44994
 Alpha virt. eigenvalues --    3.45591   3.46131   3.46451   3.47316   3.48459
 Alpha virt. eigenvalues --    3.49364   3.49945   3.51306   3.53389   3.54845
 Alpha virt. eigenvalues --    3.55831   3.57454   3.60104   3.61205   3.65653
 Alpha virt. eigenvalues --    3.89740   3.90875   3.91606   3.92584   3.92807
 Alpha virt. eigenvalues --    3.94512   4.02896   4.03027   4.04383   4.04677
 Alpha virt. eigenvalues --    4.05437   4.06242   4.07430   4.08084   4.09726
 Alpha virt. eigenvalues --    4.11354   4.17246   4.17700   4.18030   4.19878
 Alpha virt. eigenvalues --    4.20941   4.21265   4.33510   4.42360   4.46615
 Alpha virt. eigenvalues --    4.47556   4.48602   4.48889   4.49721   4.58930
 Alpha virt. eigenvalues --    4.83159   4.83660   4.88478   4.88683   4.89813
 Alpha virt. eigenvalues --    4.89923   4.90713   4.91171   5.02384   5.02449
 Alpha virt. eigenvalues --    5.02958   5.03112   5.15558   5.16135   5.16303
 Alpha virt. eigenvalues --    5.16446   5.18458   5.22854   5.60103   5.60865
 Alpha virt. eigenvalues --    5.63195   5.64751   5.66814   5.70134  15.06583
 Alpha virt. eigenvalues --   15.49284
          Condensed to atoms (all electrons):
 Mulliken charges:
               1
     1  C    0.740423
     2  H   -0.476531
     3  H   -0.099924
     4  H   -0.105826
     5  H   -0.105247
     6  Bq   0.000000
     7  Bq   0.000000
     8  Bq   0.000000
     9  Bq   0.000000
    10  C   -0.046160
    11  H    1.255895
    12  H   -0.333093
    13  H   -0.462734
    14  H   -0.366802
    15  Bq   0.000000
    16  Bq   0.000000
    17  Bq   0.000000
    18  Bq   0.000000
 Sum of Mulliken charges =  -0.00000
 Mulliken charges with hydrogens summed into heavy atoms:
               1
     1  C    0.740423
     6  Bq   0.000000
     7  Bq  -0.582357
     8  Bq  -0.105247
     9  Bq  -0.099924
    10  C   -0.046160
    15  Bq  -0.462734
    16  Bq  -0.366802
    17  Bq  -0.333093
    18  Bq   1.255895
 Electronic spatial extent (au):  <R**2>=            624.1058
 Charge=             -0.0000 electrons
 Dipole moment (field-independent basis, Debye):
    X=              0.0002    Y=              0.0003    Z=              0.0145  Tot=              0.0145

 Test job not archived.
 1\1\GINC-CHIMERA-NODE51\SP\RM05\Gen\C2H8\CONNORNM\06-Dec-2018\0\\#T M0
 5/Gen test Massage Symmetry=None SCF=(tight,maxcyc=60)\\M05 opt\\0,1\C
 ,0,0.,0.,0.\H,0,0.01422374,0.,-1.10715114\H,0,0.65265321,-0.81088007,0
 .37749603\H,0,0.36874632,0.97480732,0.37384863\H,0,-1.03562327,-0.1639
 2725,0.35580648\Bq,0,-0.00941206,0.,0.73261815\Bq,0,-0.4318702,0.53657
 124,-0.24979466\Bq,0,-0.24400485,-0.6450443,-0.24738112\Bq,0,0.6852871
 1,0.10847306,-0.23544236\C,0,0.,0.,3.93531221\H,0,0.04178892,-0.194836
 43,2.84614812\H,0,-0.82849371,0.70149098,4.15324459\H,0,-0.17102673,-0
 .95198588,4.47425441\H,0,0.95773152,0.44533132,4.26760171\Bq,0,-0.0276
 5234,0.12892612,4.65602806\Bq,0,0.54822644,-0.46418687,3.79110315\Bq,0
 ,0.11317089,0.62994302,3.57868625\Bq,0,-0.63374499,-0.29468227,3.71543
 137\\Version=AS64L-G09RevD.01\HF=-91.7632885\RMSD=4.216e-09\Dipole=0.0
 000804,0.0001205,0.0057202\Quadrupole=-0.0419739,-0.0420313,0.0840052,
 0.0000063,0.0005783,0.0012014\PG=Unknown\\@


 BULLDOZER: SOMEONE WHO SLEEPS THROUGH SPEECHES.
 Job cpu time:       0 days  0 hours 19 minutes 18.4 seconds.
 File lengths (MBytes):  RWF=     41 Int=      0 D2E=      0 Chk=      4 Scr=      1
 Normal termination of Gaussian 09 at Thu Dec  6 15:59:23 2018.
