 Entering Gaussian System, Link 0=/data/szalewicgrp/connornm/opt/Gaussian/g09-M05-par/g09/g09
 AtFile(1): aug-cc-pVTZ.gbs
 Initial command:
 /data/szalewicgrp/connornm/opt/Gaussian/g09-M05-par/g09/l1.exe "/scratch/local/Gau-16769.inp" -scrdir="/scratch/local/"
 Entering Link 1 = /data/szalewicgrp/connornm/opt/Gaussian/g09-M05-par/g09/l1.exe PID=     16770.
  
 Copyright (c) 1988,1990,1992,1993,1995,1998,2003,2009,2013,
            Gaussian, Inc.  All Rights Reserved.
  
 This is part of the Gaussian(R) 09 program.  It is based on
 the Gaussian(R) 03 system (copyright 2003, Gaussian, Inc.),
 the Gaussian(R) 98 system (copyright 1998, Gaussian, Inc.),
 the Gaussian(R) 94 system (copyright 1995, Gaussian, Inc.),
 the Gaussian 92(TM) system (copyright 1992, Gaussian, Inc.),
 the Gaussian 90(TM) system (copyright 1990, Gaussian, Inc.),
 the Gaussian 88(TM) system (copyright 1988, Gaussian, Inc.),
 the Gaussian 86(TM) system (copyright 1986, Carnegie Mellon
 University), and the Gaussian 82(TM) system (copyright 1983,
 Carnegie Mellon University). Gaussian is a federally registered
 trademark of Gaussian, Inc.
  
 This software contains proprietary and confidential information,
 including trade secrets, belonging to Gaussian, Inc.
  
 This software is provided under written license and may be
 used, copied, transmitted, or stored only in accord with that
 written license.
  
 The following legend is applicable only to US Government
 contracts under FAR:
  
                    RESTRICTED RIGHTS LEGEND
  
 Use, reproduction and disclosure by the US Government is
 subject to restrictions as set forth in subparagraphs (a)
 and (c) of the Commercial Computer Software - Restricted
 Rights clause in FAR 52.227-19.
  
 Gaussian, Inc.
 340 Quinnipiac St., Bldg. 40, Wallingford CT 06492
  
  
 ---------------------------------------------------------------
 Warning -- This program may not be used in any manner that
 competes with the business of Gaussian, Inc. or will provide
 assistance to any competitor of Gaussian, Inc.  The licensee
 of this program is prohibited from giving any competitor of
 Gaussian, Inc. access to this program.  By using this program,
 the user acknowledges that Gaussian, Inc. is engaged in the
 business of creating and licensing software in the field of
 computational chemistry and represents and warrants to the
 licensee that it is not a competitor of Gaussian, Inc. and that
 it will not use this program in any manner prohibited above.
 ---------------------------------------------------------------
  

 Cite this work as:
 Gaussian 09, Revision D.01,
 M. J. Frisch, G. W. Trucks, H. B. Schlegel, G. E. Scuseria, 
 M. A. Robb, J. R. Cheeseman, G. Scalmani, V. Barone, B. Mennucci, 
 G. A. Petersson, H. Nakatsuji, M. Caricato, X. Li, H. P. Hratchian, 
 A. F. Izmaylov, J. Bloino, G. Zheng, J. L. Sonnenberg, M. Hada, 
 M. Ehara, K. Toyota, R. Fukuda, J. Hasegawa, M. Ishida, T. Nakajima, 
 Y. Honda, O. Kitao, H. Nakai, T. Vreven, J. A. Montgomery, Jr., 
 J. E. Peralta, F. Ogliaro, M. Bearpark, J. J. Heyd, E. Brothers, 
 K. N. Kudin, V. N. Staroverov, T. Keith, R. Kobayashi, J. Normand, 
 K. Raghavachari, A. Rendell, J. C. Burant, S. S. Iyengar, J. Tomasi, 
 M. Cossi, N. Rega, J. M. Millam, M. Klene, J. E. Knox, J. B. Cross, 
 V. Bakken, C. Adamo, J. Jaramillo, R. Gomperts, R. E. Stratmann, 
 O. Yazyev, A. J. Austin, R. Cammi, C. Pomelli, J. W. Ochterski, 
 R. L. Martin, K. Morokuma, V. G. Zakrzewski, G. A. Voth, 
 P. Salvador, J. J. Dannenberg, S. Dapprich, A. D. Daniels, 
 O. Farkas, J. B. Foresman, J. V. Ortiz, J. Cioslowski, 
 and D. J. Fox, Gaussian, Inc., Wallingford CT, 2013.
 
 ******************************************
 Gaussian 09:  AS64L-G09RevD.01 24-Apr-2013
                 5-Dec-2018 
 ******************************************
 %Chk=CH400310
 %Mem=2GB
 %NProcShared=16
 Will use up to   16 processors via shared memory.
 -----------------------------------------------------------
 #T M05/Gen test Massage Symmetry=None SCF=(tight,maxcyc=60)
 -----------------------------------------------------------
 -------
 M05 opt
 -------
 Symbolic Z-matrix:
 Charge =  0 Multiplicity = 1
 6                     0.        0.        0. 
 1                     0.12611   0.        1.10004 
 1                     0.49496  -0.89309  -0.42824 
 1                    -1.07894  -0.02156  -0.24781 
 1                     0.45787   0.91465  -0.42399 
 0                    -0.08345   0.       -0.72791 
 0                    -0.32753   0.59097   0.28337 
 0                     0.71395   0.01427   0.16398 
 0                    -0.30298  -0.60524   0.28056 
 6                     0.        0.        3.55927 
 1                     0.39049   1.03252   3.64537 
 1                    -1.10271   0.02923   3.46355 
 1                     0.43537  -0.48584   2.66462 
 1                     0.27685  -0.5759    4.46352 
 0                    -0.25839  -0.68323   3.50229 
 0                     0.72968  -0.01934   3.6226 
 0                    -0.28809   0.32149   4.15127 
 0                    -0.18319   0.38108   2.96091 
 
                    Distance matrix (angstroms):
                    1          2          3          4          5
     1  C    0.000000
     2  H    1.107243   0.000000
     3  H    1.107243   1.808119   0.000000
     4  H    1.107243   1.808119   1.808119   0.000000
     5  H    1.107243   1.808119   1.808119   1.808119   0.000000
     6  Bq   0.732679   1.839921   1.105427   1.105427   1.105427
     7  Bq   0.732679   1.105427   1.839921   1.105427   1.105427
     8  Bq   0.732679   1.105427   1.105427   1.839921   1.105427
     9  Bq   0.732679   1.105427   1.105427   1.105427   1.839921
    10  C    3.559267   2.462461   4.116166   3.957068   4.112487
    11  H    3.808845   2.759476   4.507014   4.292683   4.071623
    12  H    3.634973   2.664031   4.306890   3.711783   4.281629
    13  H    2.743318   1.667215   3.120128   3.315258   3.391369
    14  H    4.509030   3.415761   4.906889   4.933770   5.112952
    15  Bq   3.577655   2.526949   4.007578   3.895425   4.299060
    16  Bq   3.695410   2.593839   4.150646   4.272139   4.161864
    17  Bq   4.173653   3.095953   4.802113   4.482742   4.673464
    18  Bq   2.990945   1.924507   3.683712   3.355641   3.486139
                    6          7          8          9         10
     6  Bq   0.000000
     7  Bq   1.196459   0.000000
     8  Bq   1.196459   1.196459   0.000000
     9  Bq   1.196459   1.196459   1.196459   0.000000
    10  C    4.287990   3.344845   3.469571   3.347839   0.000000
    11  H    4.518440   3.466054   3.641642   3.805926   1.107243
    12  H    4.313713   3.321145   3.766654   3.342688   1.107243
    13  H    3.466192   2.722475   2.565332   2.498632   1.107243
    14  H    5.235692   4.381838   4.361819   4.223061   1.107242
    15  Bq   4.288592   3.462628   3.546307   3.222984   0.732679
    16  Bq   4.425891   3.555363   3.458824   3.546674   0.732679
    17  Bq   4.894039   3.877470   4.122738   3.980128   0.732679
    18  Bq   3.709791   2.689622   2.960107   2.858572   0.732679
                   11         12         13         14         15
    11  H    0.000000
    12  H    1.808119   0.000000
    13  H    1.808119   1.808119   0.000000
    14  H    1.808119   1.808119   1.808119   0.000000
    15  Bq   1.839921   1.105427   1.105427   1.105427   0.000000
    16  Bq   1.105427   1.839921   1.105427   1.105427   1.196459
    17  Bq   1.105427   1.105427   1.839921   1.105427   1.196459
    18  Bq   1.105427   1.105427   1.105427   1.839921   1.196459
                   16         17         18
    16  Bq   0.000000
    17  Bq   1.196459   0.000000
    18  Bq   1.196459   1.196459   0.000000
 Symmetry turned off by external request.
 Rotational constants (GHZ):     76.6916052      4.6735904      4.6735904
 Warning:  center   6 has no basis functions!
 Warning:  center   7 has no basis functions!
 Warning:  center   8 has no basis functions!
 Warning:  center   9 has no basis functions!
 Warning:  center  15 has no basis functions!
 Warning:  center  16 has no basis functions!
 Warning:  center  17 has no basis functions!
 Warning:  center  18 has no basis functions!
   276 basis functions,   360 primitive gaussians,   310 cartesian basis functions
    10 alpha electrons       10 beta electrons
       nuclear repulsion energy        41.4347283068 Hartrees.
 IMHF & INEx in M05                  614413                  385587
 NAtoms=   18 NActive=   18 NUniq=   18 SFac= 1.00D+00 NAtFMM=   60 NAOKFM=F Big=F
 ExpMin= 2.53D-02 ExpMax= 8.24D+03 ExpMxC= 2.81D+02 IAcc=3 IRadAn=         5 AccDes= 0.00D+00
 Harris functional with IExCor= 1009 and IRadAn=       5 diagonalized for initial guess.
 HarFok:  IExCor= 1009 AccDes= 0.00D+00 IRadAn=         5 IDoV= 1 UseB2=F ITyADJ=14
 ICtDFT=  3500011 ScaDFX=  1.000000  1.000000  1.000000  1.000000
 FoFCou: FMM=F IPFlag=           0 FMFlag=      100000 FMFlg1=           0
         NFxFlg=           0 DoJE=T BraDBF=F KetDBF=T FulRan=T
         wScrn=  0.000000 ICntrl=     500 IOpCl=  0 I1Cent=   200000004 NGrid=           0
         NMat0=    1 NMatS0=      1 NMatT0=    0 NMatD0=    1 NMtDS0=    0 NMtDT0=    0
 Symmetry not used in FoFCou.
 SCF Done:  E(RM05) =  -81.8162514084     A.U. after    9 cycles
            NFock=  9  Conv=0.16D-08     -V/T= 2.0120

 **********************************************************************

            Population analysis using the SCF density.

 **********************************************************************

 Alpha  occ. eigenvalues --  -10.74533 -10.74030  -0.83463  -0.82167  -0.51963
 Alpha  occ. eigenvalues --   -0.48986  -0.48949  -0.48447  -0.48416  -0.45629
 Alpha virt. eigenvalues --   -0.00409   0.01442   0.02380   0.02464   0.04014
 Alpha virt. eigenvalues --    0.04434   0.04591   0.06944   0.07829   0.08705
 Alpha virt. eigenvalues --    0.09003   0.09647   0.10591   0.11043   0.12317
 Alpha virt. eigenvalues --    0.13519   0.14091   0.14437   0.15281   0.16020
 Alpha virt. eigenvalues --    0.16102   0.16431   0.18983   0.22394   0.24278
 Alpha virt. eigenvalues --    0.24832   0.25276   0.26029   0.27672   0.28153
 Alpha virt. eigenvalues --    0.28630   0.28949   0.29325   0.29802   0.30694
 Alpha virt. eigenvalues --    0.31250   0.31311   0.32648   0.33307   0.34092
 Alpha virt. eigenvalues --    0.34546   0.35002   0.35789   0.35978   0.36803
 Alpha virt. eigenvalues --    0.37605   0.37983   0.39357   0.41236   0.42513
 Alpha virt. eigenvalues --    0.43308   0.44046   0.45491   0.46084   0.46966
 Alpha virt. eigenvalues --    0.48705   0.52026   0.53948   0.57932   0.60263
 Alpha virt. eigenvalues --    0.61905   0.66104   0.66910   0.68195   0.68817
 Alpha virt. eigenvalues --    0.70045   0.71678   0.71834   0.73064   0.74335
 Alpha virt. eigenvalues --    0.76762   0.77471   0.77928   0.79226   0.79896
 Alpha virt. eigenvalues --    0.80555   0.81585   0.82891   0.84323   0.85612
 Alpha virt. eigenvalues --    0.86261   0.87016   0.88203   0.89175   0.89492
 Alpha virt. eigenvalues --    0.89563   0.91154   0.92108   0.94691   0.95604
 Alpha virt. eigenvalues --    0.96663   0.96997   0.97446   0.98899   0.99109
 Alpha virt. eigenvalues --    0.99456   1.00971   1.02003   1.04866   1.05854
 Alpha virt. eigenvalues --    1.07416   1.08038   1.09961   1.10496   1.11433
 Alpha virt. eigenvalues --    1.12629   1.14018   1.16764   1.17893   1.19034
 Alpha virt. eigenvalues --    1.21675   1.24681   1.26007   1.27526   1.31408
 Alpha virt. eigenvalues --    1.36137   1.39167   1.41434   1.43620   1.44381
 Alpha virt. eigenvalues --    1.45257   1.46507   1.47055   1.47144   1.48224
 Alpha virt. eigenvalues --    1.48501   1.49286   1.52884   1.53335   1.54905
 Alpha virt. eigenvalues --    1.59105   1.61100   1.61813   1.63160   1.65156
 Alpha virt. eigenvalues --    1.67982   1.69194   1.69936   1.71886   1.72210
 Alpha virt. eigenvalues --    1.72903   1.75906   1.77023   1.80266   1.84076
 Alpha virt. eigenvalues --    1.87437   1.88053   1.93013   1.94469   1.96823
 Alpha virt. eigenvalues --    1.98016   2.01072   2.02026   2.02938   2.03785
 Alpha virt. eigenvalues --    2.04379   2.07900   2.15889   2.18289   2.23909
 Alpha virt. eigenvalues --    2.44271   2.67968   2.78389   2.83310   2.90504
 Alpha virt. eigenvalues --    2.90607   2.92455   2.94403   2.96529   3.10747
 Alpha virt. eigenvalues --    3.18474   3.21923   3.22949   3.23349   3.24737
 Alpha virt. eigenvalues --    3.25616   3.26152   3.27605   3.28308   3.29217
 Alpha virt. eigenvalues --    3.31710   3.32394   3.34862   3.43083   3.44354
 Alpha virt. eigenvalues --    3.48594   3.57580   3.57949   3.60832   3.61037
 Alpha virt. eigenvalues --    3.63476   3.67917   3.71308   3.71525   3.73281
 Alpha virt. eigenvalues --    3.73731   3.74093   3.75862   3.76448   3.78082
 Alpha virt. eigenvalues --    3.80009   3.81640   3.83802   3.84265   3.86472
 Alpha virt. eigenvalues --    3.87164   3.89019   3.90791   3.97734   4.09971
 Alpha virt. eigenvalues --    4.16725   4.19133   4.20254   4.21338   4.22019
 Alpha virt. eigenvalues --    4.24019   4.33093   4.34241   4.36009   4.37223
 Alpha virt. eigenvalues --    4.38125   4.39254   4.40802   4.43623   4.49317
 Alpha virt. eigenvalues --    4.50319   4.51583   4.54338   4.54394   4.57258
 Alpha virt. eigenvalues --    4.64319   4.65756   4.77193   4.78441   4.79378
 Alpha virt. eigenvalues --    4.81335   4.85342   4.86154   4.94790   5.09841
 Alpha virt. eigenvalues --    5.13043   5.13888   5.14575   5.15036   5.20201
 Alpha virt. eigenvalues --    5.21129   5.27402   5.29191   5.30830   5.34612
 Alpha virt. eigenvalues --    5.36537   5.37900   5.57784   5.57945   5.59678
 Alpha virt. eigenvalues --    5.61363   5.68617   5.78312   6.05895   6.07170
 Alpha virt. eigenvalues --    6.08898   6.09877   6.11267   6.26906  17.01046
 Alpha virt. eigenvalues --   17.38239
          Condensed to atoms (all electrons):
 Mulliken charges:
               1
     1  C   -1.929344
     2  H    0.693236
     3  H    0.397410
     4  H    0.407232
     5  H    0.403394
     6  Bq   0.000000
     7  Bq   0.000000
     8  Bq   0.000000
     9  Bq   0.000000
    10  C   -1.911812
    11  H    0.460277
    12  H    0.456448
    13  H    0.631449
    14  H    0.391710
    15  Bq   0.000000
    16  Bq   0.000000
    17  Bq   0.000000
    18  Bq   0.000000
 Sum of Mulliken charges =  -0.00000
 Mulliken charges with hydrogens summed into heavy atoms:
               1
     1  C   -1.929344
     6  Bq   0.000000
     7  Bq   0.403394
     8  Bq   0.693236
     9  Bq   0.804642
    10  C   -1.911812
    15  Bq   1.023159
    16  Bq   0.000000
    17  Bq   0.000000
    18  Bq   0.916725
 Electronic spatial extent (au):  <R**2>=            525.4110
 Charge=             -0.0000 electrons
 Dipole moment (field-independent basis, Debye):
    X=              0.0019    Y=             -0.0033    Z=              0.1191  Tot=              0.1192

 Test job not archived.
 1\1\GINC-CHIMERA-NODE50\SP\RM05\Gen\C2H8\CONNORNM\05-Dec-2018\0\\#T M0
 5/Gen test Massage Symmetry=None SCF=(tight,maxcyc=60)\\M05 opt\\0,1\C
 ,0,0.,0.,0.\H,0,0.12611048,0.,1.10003732\H,0,0.49496477,-0.89308711,-0
 .42824204\H,0,-1.07894075,-0.02155957,-0.24780637\H,0,0.4578655,0.9146
 4668,-0.42398891\Bq,0,-0.08344915,0.,-0.72791083\Bq,0,-0.32752545,0.59
 096884,0.28337404\Bq,0,0.71395092,0.01426628,0.16397711\Bq,0,-0.302976
 32,-0.60523512,0.28055968\C,0,0.,0.,3.55926692\H,0,0.39049114,1.032515
 78,3.64537032\H,0,-1.10271057,0.02922764,3.46355323\H,0,0.43537435,-0.
 48584216,2.66462032\H,0,0.27684508,-0.57590126,4.46352379\Bq,0,-0.2583
 9371,-0.68323083,3.50229103\Bq,0,0.72967976,-0.01934035,3.62260207\Bq,
 0,-0.28809359,0.32148888,4.15126769\Bq,0,-0.18319245,0.38108231,2.9609
 0688\\Version=AS64L-G09RevD.01\HF=-81.8162514\RMSD=1.632e-09\Dipole=0.
 0007555,-0.0012806,0.046877\Quadrupole=0.0009803,-0.0033063,0.0023259,
 0.0003728,-0.0010296,0.000085\PG=Unknown\\@


 E PUR SI MUOVE    -- GALILEO GALILEI
 Job cpu time:       0 days  0 hours 15 minutes 19.6 seconds.
 File lengths (MBytes):  RWF=     41 Int=      0 D2E=      0 Chk=      4 Scr=      1
 Normal termination of Gaussian 09 at Wed Dec  5 21:55:28 2018.
