 Entering Gaussian System, Link 0=/data/szalewicgrp/connornm/opt/Gaussian/g09-M05-par/g09/g09
 AtFile(1): aug-cc-pVTZ.gbs
 Initial command:
 /data/szalewicgrp/connornm/opt/Gaussian/g09-M05-par/g09/l1.exe "/scratch/local/Gau-45847.inp" -scrdir="/scratch/local/"
 Entering Link 1 = /data/szalewicgrp/connornm/opt/Gaussian/g09-M05-par/g09/l1.exe PID=     45848.
  
 Copyright (c) 1988,1990,1992,1993,1995,1998,2003,2009,2013,
            Gaussian, Inc.  All Rights Reserved.
  
 This is part of the Gaussian(R) 09 program.  It is based on
 the Gaussian(R) 03 system (copyright 2003, Gaussian, Inc.),
 the Gaussian(R) 98 system (copyright 1998, Gaussian, Inc.),
 the Gaussian(R) 94 system (copyright 1995, Gaussian, Inc.),
 the Gaussian 92(TM) system (copyright 1992, Gaussian, Inc.),
 the Gaussian 90(TM) system (copyright 1990, Gaussian, Inc.),
 the Gaussian 88(TM) system (copyright 1988, Gaussian, Inc.),
 the Gaussian 86(TM) system (copyright 1986, Carnegie Mellon
 University), and the Gaussian 82(TM) system (copyright 1983,
 Carnegie Mellon University). Gaussian is a federally registered
 trademark of Gaussian, Inc.
  
 This software contains proprietary and confidential information,
 including trade secrets, belonging to Gaussian, Inc.
  
 This software is provided under written license and may be
 used, copied, transmitted, or stored only in accord with that
 written license.
  
 The following legend is applicable only to US Government
 contracts under FAR:
  
                    RESTRICTED RIGHTS LEGEND
  
 Use, reproduction and disclosure by the US Government is
 subject to restrictions as set forth in subparagraphs (a)
 and (c) of the Commercial Computer Software - Restricted
 Rights clause in FAR 52.227-19.
  
 Gaussian, Inc.
 340 Quinnipiac St., Bldg. 40, Wallingford CT 06492
  
  
 ---------------------------------------------------------------
 Warning -- This program may not be used in any manner that
 competes with the business of Gaussian, Inc. or will provide
 assistance to any competitor of Gaussian, Inc.  The licensee
 of this program is prohibited from giving any competitor of
 Gaussian, Inc. access to this program.  By using this program,
 the user acknowledges that Gaussian, Inc. is engaged in the
 business of creating and licensing software in the field of
 computational chemistry and represents and warrants to the
 licensee that it is not a competitor of Gaussian, Inc. and that
 it will not use this program in any manner prohibited above.
 ---------------------------------------------------------------
  

 Cite this work as:
 Gaussian 09, Revision D.01,
 M. J. Frisch, G. W. Trucks, H. B. Schlegel, G. E. Scuseria, 
 M. A. Robb, J. R. Cheeseman, G. Scalmani, V. Barone, B. Mennucci, 
 G. A. Petersson, H. Nakatsuji, M. Caricato, X. Li, H. P. Hratchian, 
 A. F. Izmaylov, J. Bloino, G. Zheng, J. L. Sonnenberg, M. Hada, 
 M. Ehara, K. Toyota, R. Fukuda, J. Hasegawa, M. Ishida, T. Nakajima, 
 Y. Honda, O. Kitao, H. Nakai, T. Vreven, J. A. Montgomery, Jr., 
 J. E. Peralta, F. Ogliaro, M. Bearpark, J. J. Heyd, E. Brothers, 
 K. N. Kudin, V. N. Staroverov, T. Keith, R. Kobayashi, J. Normand, 
 K. Raghavachari, A. Rendell, J. C. Burant, S. S. Iyengar, J. Tomasi, 
 M. Cossi, N. Rega, J. M. Millam, M. Klene, J. E. Knox, J. B. Cross, 
 V. Bakken, C. Adamo, J. Jaramillo, R. Gomperts, R. E. Stratmann, 
 O. Yazyev, A. J. Austin, R. Cammi, C. Pomelli, J. W. Ochterski, 
 R. L. Martin, K. Morokuma, V. G. Zakrzewski, G. A. Voth, 
 P. Salvador, J. J. Dannenberg, S. Dapprich, A. D. Daniels, 
 O. Farkas, J. B. Foresman, J. V. Ortiz, J. Cioslowski, 
 and D. J. Fox, Gaussian, Inc., Wallingford CT, 2013.
 
 ******************************************
 Gaussian 09:  AS64L-G09RevD.01 24-Apr-2013
                 5-Dec-2018 
 ******************************************
 %Chk=CH400113
 %Mem=2GB
 %NProcShared=16
 Will use up to   16 processors via shared memory.
 -----------------------------------------------------------
 #T M05/Gen test Massage Symmetry=None SCF=(tight,maxcyc=60)
 -----------------------------------------------------------
 -------
 M05 opt
 -------
 Symbolic Z-matrix:
 Charge =  0 Multiplicity = 1
 6                     0.        0.        0. 
 1                     0.98679   0.       -0.50223 
 1                    -0.77971  -0.31953  -0.71829 
 1                     0.02198  -0.7009    0.85688 
 1                    -0.22905   1.02043   0.36364 
 0                    -0.65297   0.        0.33234 
 0                     0.51595   0.21144   0.4753 
 0                    -0.01455   0.4638   -0.56701 
 0                     0.15157  -0.67524  -0.24063 
 6                     0.        0.        2.45637 
 1                    -0.45366   0.38795   3.38894 
 1                     1.05864  -0.26508   2.64343 
 1                    -0.5526   -0.89998   2.12373 
 1                    -0.05238   0.77712   1.6694 
 0                     0.3002   -0.25671   1.83928 
 0                    -0.70052   0.17541   2.33259 
 0                     0.36566   0.59553   2.67649 
 0                     0.03466  -0.51423   2.97713 
 
                    Distance matrix (angstroms):
                    1          2          3          4          5
     1  C    0.000000
     2  H    1.107242   0.000000
     3  H    1.107243   1.808119   0.000000
     4  H    1.107242   1.808119   1.808119   0.000000
     5  H    1.107242   1.808119   1.808119   1.808119   0.000000
     6  Bq   0.732679   1.839921   1.105427   1.105427   1.105427
     7  Bq   0.732679   1.105427   1.839921   1.105427   1.105427
     8  Bq   0.732679   1.105427   1.105427   1.839921   1.105427
     9  Bq   0.732679   1.105427   1.105427   1.105427   1.839921
    10  C    2.456374   3.118832   3.284588   1.746465   2.339502
    11  H    3.441105   4.167327   4.180443   2.796991   3.098852
    12  H    2.859848   3.157634   3.831928   2.111017   2.916874
    13  H    2.371826   3.174171   2.909562   1.405237   2.624990
    14  H    1.842158   2.529776   2.726294   1.688273   1.339929
    15  Bq   1.881218   2.453572   2.776925   1.113479   2.022056
    16  Bq   2.441822   3.303639   3.091780   1.862170   2.193881
    17  Bq   2.766219   3.293136   3.697800   2.260498   2.425591
    18  Bq   3.021411   3.643753   3.789088   2.128491   3.042209
                    6          7          8          9         10
     6  Bq   0.000000
     7  Bq   1.196459   0.000000
     8  Bq   1.196459   1.196459   0.000000
     9  Bq   1.196459   1.196459   1.196459   0.000000
    10  C    2.222140   2.058048   3.058784   2.784374   0.000000
    11  H    3.087561   3.075806   3.980964   3.830196   1.107243
    12  H    2.888089   2.285255   3.462648   3.051036   1.107243
    13  H    2.007269   2.257070   3.064223   2.477206   1.107242
    14  H    1.659022   1.438353   2.258564   2.408137   1.107242
    15  Bq   1.801476   1.458136   2.531488   2.126802   0.732679
    16  Bq   2.008498   2.220503   2.993564   2.840973   0.732679
    17  Bq   2.624373   2.239498   3.268362   3.189085   0.732679
    18  Bq   2.780682   2.649032   3.676936   3.223902   0.732679
                   11         12         13         14         15
    11  H    0.000000
    12  H    1.808119   0.000000
    13  H    1.808119   1.808119   0.000000
    14  H    1.808119   1.808119   1.808119   0.000000
    15  Bq   1.839921   1.105427   1.105427   1.105427   0.000000
    16  Bq   1.105427   1.839921   1.105427   1.105427   1.196459
    17  Bq   1.105427   1.105427   1.839921   1.105427   1.196459
    18  Bq   1.105427   1.105427   1.105427   1.839921   1.196459
                   16         17         18
    16  Bq   0.000000
    17  Bq   1.196459   0.000000
    18  Bq   1.196459   1.196459   0.000000
 Symmetry turned off by external request.
 Rotational constants (GHZ):     76.6916058      9.1963378      9.1963378
 Warning:  center   6 has no basis functions!
 Warning:  center   7 has no basis functions!
 Warning:  center   8 has no basis functions!
 Warning:  center   9 has no basis functions!
 Warning:  center  15 has no basis functions!
 Warning:  center  16 has no basis functions!
 Warning:  center  17 has no basis functions!
 Warning:  center  18 has no basis functions!
   276 basis functions,   360 primitive gaussians,   310 cartesian basis functions
    10 alpha electrons       10 beta electrons
       nuclear repulsion energy        47.8524889737 Hartrees.
 IMHF & INEx in M05                  614413                  385587
 NAtoms=   18 NActive=   18 NUniq=   18 SFac= 1.00D+00 NAtFMM=   60 NAOKFM=F Big=F
 ExpMin= 2.53D-02 ExpMax= 8.24D+03 ExpMxC= 2.81D+02 IAcc=3 IRadAn=         5 AccDes= 0.00D+00
 Harris functional with IExCor= 1009 and IRadAn=       5 diagonalized for initial guess.
 HarFok:  IExCor= 1009 AccDes= 0.00D+00 IRadAn=         5 IDoV= 1 UseB2=F ITyADJ=14
 ICtDFT=  3500011 ScaDFX=  1.000000  1.000000  1.000000  1.000000
 FoFCou: FMM=F IPFlag=           0 FMFlag=      100000 FMFlg1=           0
         NFxFlg=           0 DoJE=T BraDBF=F KetDBF=T FulRan=T
         wScrn=  0.000000 ICntrl=     500 IOpCl=  0 I1Cent=   200000004 NGrid=           0
         NMat0=    1 NMatS0=      1 NMatT0=    0 NMatD0=    1 NMtDS0=    0 NMtDT0=    0
 Symmetry not used in FoFCou.
 SCF Done:  E(RM05) =  -89.7431391611     A.U. after   13 cycles
            NFock= 13  Conv=0.68D-08     -V/T= 2.0209

 **********************************************************************

            Population analysis using the SCF density.

 **********************************************************************

 Alpha  occ. eigenvalues --  -11.77760 -11.77697  -0.99391  -0.92170  -0.71029
 Alpha  occ. eigenvalues --   -0.70302  -0.65880  -0.64555  -0.60773  -0.58030
 Alpha virt. eigenvalues --   -0.08736  -0.04033  -0.02238  -0.02078  -0.01090
 Alpha virt. eigenvalues --   -0.00515   0.00487   0.00890   0.01497   0.02389
 Alpha virt. eigenvalues --    0.02743   0.05160   0.05571   0.06938   0.07136
 Alpha virt. eigenvalues --    0.07334   0.07666   0.08342   0.08814   0.09077
 Alpha virt. eigenvalues --    0.10299   0.10624   0.16112   0.16775   0.17795
 Alpha virt. eigenvalues --    0.18509   0.18917   0.19583   0.20082   0.20444
 Alpha virt. eigenvalues --    0.20688   0.21954   0.22367   0.23420   0.23984
 Alpha virt. eigenvalues --    0.24637   0.25389   0.25417   0.26401   0.26889
 Alpha virt. eigenvalues --    0.27371   0.27865   0.29128   0.31586   0.32991
 Alpha virt. eigenvalues --    0.34622   0.34920   0.34977   0.35985   0.36690
 Alpha virt. eigenvalues --    0.36866   0.37703   0.39383   0.40627   0.41355
 Alpha virt. eigenvalues --    0.42289   0.43933   0.48416   0.49037   0.50168
 Alpha virt. eigenvalues --    0.52231   0.54466   0.56370   0.57663   0.58673
 Alpha virt. eigenvalues --    0.58917   0.59243   0.61103   0.62254   0.62990
 Alpha virt. eigenvalues --    0.62998   0.63393   0.66886   0.67370   0.68008
 Alpha virt. eigenvalues --    0.70386   0.70892   0.71610   0.73216   0.74235
 Alpha virt. eigenvalues --    0.75387   0.75745   0.77057   0.77814   0.78893
 Alpha virt. eigenvalues --    0.80584   0.81333   0.83384   0.85068   0.85494
 Alpha virt. eigenvalues --    0.86478   0.87388   0.87802   0.89334   0.90569
 Alpha virt. eigenvalues --    0.92288   0.93516   0.94383   0.95840   0.97237
 Alpha virt. eigenvalues --    0.98360   0.99672   1.02084   1.03885   1.04406
 Alpha virt. eigenvalues --    1.06729   1.09858   1.12069   1.14815   1.15627
 Alpha virt. eigenvalues --    1.18644   1.20844   1.21675   1.24163   1.26008
 Alpha virt. eigenvalues --    1.27489   1.30251   1.31757   1.32337   1.32672
 Alpha virt. eigenvalues --    1.34129   1.34850   1.38244   1.39509   1.42552
 Alpha virt. eigenvalues --    1.43776   1.45368   1.46657   1.47505   1.48859
 Alpha virt. eigenvalues --    1.50736   1.52047   1.54152   1.55873   1.57133
 Alpha virt. eigenvalues --    1.57970   1.61681   1.62087   1.63532   1.65129
 Alpha virt. eigenvalues --    1.68853   1.70150   1.73996   1.76880   1.77528
 Alpha virt. eigenvalues --    1.79622   1.82362   1.83658   1.86287   1.86548
 Alpha virt. eigenvalues --    1.87975   1.88779   1.91895   1.95422   1.97981
 Alpha virt. eigenvalues --    2.00662   2.01936   2.07465   2.11588   2.14931
 Alpha virt. eigenvalues --    2.38457   2.45179   2.47269   2.61193   2.66613
 Alpha virt. eigenvalues --    2.68603   2.69100   2.75845   2.83736   2.93947
 Alpha virt. eigenvalues --    3.02926   3.05683   3.10130   3.10516   3.12342
 Alpha virt. eigenvalues --    3.13594   3.15106   3.17214   3.19419   3.22260
 Alpha virt. eigenvalues --    3.24610   3.25989   3.28428   3.30255   3.33180
 Alpha virt. eigenvalues --    3.33352   3.34963   3.35599   3.40450   3.41480
 Alpha virt. eigenvalues --    3.43686   3.49777   3.52888   3.55029   3.56706
 Alpha virt. eigenvalues --    3.58630   3.61217   3.61832   3.63273   3.66382
 Alpha virt. eigenvalues --    3.67404   3.69512   3.72090   3.74639   3.79031
 Alpha virt. eigenvalues --    3.80933   3.81670   3.84353   3.93393   3.99771
 Alpha virt. eigenvalues --    4.01044   4.03341   4.05106   4.07911   4.12194
 Alpha virt. eigenvalues --    4.14538   4.15973   4.16421   4.18364   4.24029
 Alpha virt. eigenvalues --    4.25170   4.27507   4.28724   4.32727   4.35381
 Alpha virt. eigenvalues --    4.38899   4.42135   4.45384   4.45769   4.51059
 Alpha virt. eigenvalues --    4.54851   4.58969   4.67990   4.68772   4.71845
 Alpha virt. eigenvalues --    4.72710   4.75316   4.80545   4.85767   4.95256
 Alpha virt. eigenvalues --    4.97428   4.98550   5.00170   5.04723   5.10361
 Alpha virt. eigenvalues --    5.13287   5.15385   5.19989   5.21866   5.28074
 Alpha virt. eigenvalues --    5.32821   5.37970   5.39023   5.43080   5.47174
 Alpha virt. eigenvalues --    5.57398   5.60765   5.70966   5.80205   5.82030
 Alpha virt. eigenvalues --    5.84270   5.90435   5.97137   6.12812  16.26616
 Alpha virt. eigenvalues --   16.68419
          Condensed to atoms (all electrons):
 Mulliken charges:
               1
     1  C   -0.528008
     2  H   -0.099620
     3  H   -0.270073
     4  H    0.733774
     5  H    0.128993
     6  Bq   0.000000
     7  Bq   0.000000
     8  Bq   0.000000
     9  Bq   0.000000
    10  C   -0.675199
    11  H   -0.682359
    12  H    0.050579
    13  H    0.421128
    14  H    0.920785
    15  Bq   0.000000
    16  Bq   0.000000
    17  Bq   0.000000
    18  Bq   0.000000
 Sum of Mulliken charges =  -0.00000
 Mulliken charges with hydrogens summed into heavy atoms:
               1
     1  C   -0.528008
     6  Bq   0.733774
     7  Bq   0.128993
     8  Bq  -0.099620
     9  Bq  -0.270073
    10  C   -0.675199
    15  Bq   0.421128
    16  Bq  -0.682359
    17  Bq   0.971364
    18  Bq   0.000000
 Electronic spatial extent (au):  <R**2>=            288.9741
 Charge=             -0.0000 electrons
 Dipole moment (field-independent basis, Debye):
    X=             -0.0299    Y=              0.0189    Z=             -0.0432  Tot=              0.0558

 Test job not archived.
 1\1\GINC-CHIMERA-NODE54\SP\RM05\Gen\C2H8\CONNORNM\05-Dec-2018\0\\#T M0
 5/Gen test Massage Symmetry=None SCF=(tight,maxcyc=60)\\M05 opt\\0,1\C
 ,0,0.,0.,0.\H,0,0.9867858,0.,-0.50223474\H,0,-0.77971321,-0.3195296,-0
 .71828553\H,0,0.02198162,-0.70090331,0.85687648\H,0,-0.22905421,1.0204
 3291,0.36364378\Bq,0,-0.65297064,0.,0.3323361\Bq,0,0.51594767,0.211437
 42,0.47530007\Bq,0,-0.01454556,0.463798,-0.56700774\Bq,0,0.15156853,-0
 .67523542,-0.24062843\C,0,0.,0.,2.45637412\H,0,-0.4536635,0.38794621,3
 .38893679\H,0,1.0586437,-0.2650823,2.64343254\H,0,-0.55260045,-0.89998
 108,2.12372904\H,0,-0.05237975,0.77711717,1.66939813\Bq,0,0.30019579,-
 0.2567097,1.83928373\Bq,0,-0.70052006,0.17540885,2.33259483\Bq,0,0.365
 66382,0.59553068,2.67649025\Bq,0,0.03466045,-0.51422983,2.97712768\\Ve
 rsion=AS64L-G09RevD.01\HF=-89.7431392\RMSD=6.770e-09\Dipole=-0.0117476
 ,0.0074375,-0.0170067\Quadrupole=0.3734435,0.66522,-1.0386635,0.009335
 ,0.0478464,-0.0965168\PG=Unknown\\@


 WE SHOULD BE CAREFUL TO GET OUT OF AN EXPERIENCE ONLY THE WISDOM
 THAT IS IN IT -- AND STOP THERE;
 LEST WE BE LIKE THE CAT THAT SITS DOWN ON A HOT STOVE-LID.
 SHE WILL NEVER SIT DOWN ON A HOT STOVE LID AGAIN;
 BUT ALSO SHE WILL NEVER SIT DOWN ON A COLD ONE ANY MORE.

                                                     -- MARK TWAIN
 Job cpu time:       0 days  0 hours 24 minutes 32.4 seconds.
 File lengths (MBytes):  RWF=     41 Int=      0 D2E=      0 Chk=      4 Scr=      1
 Normal termination of Gaussian 09 at Wed Dec  5 22:06:42 2018.
