 Entering Gaussian System, Link 0=/data/szalewicgrp/connornm/opt/Gaussian/g09-M05-par/g09/g09
 AtFile(1): aug-cc-pVTZ.gbs
 Initial command:
 /data/szalewicgrp/connornm/opt/Gaussian/g09-M05-par/g09/l1.exe "/scratch/local/Gau-30658.inp" -scrdir="/scratch/local/"
 Entering Link 1 = /data/szalewicgrp/connornm/opt/Gaussian/g09-M05-par/g09/l1.exe PID=     30659.
  
 Copyright (c) 1988,1990,1992,1993,1995,1998,2003,2009,2013,
            Gaussian, Inc.  All Rights Reserved.
  
 This is part of the Gaussian(R) 09 program.  It is based on
 the Gaussian(R) 03 system (copyright 2003, Gaussian, Inc.),
 the Gaussian(R) 98 system (copyright 1998, Gaussian, Inc.),
 the Gaussian(R) 94 system (copyright 1995, Gaussian, Inc.),
 the Gaussian 92(TM) system (copyright 1992, Gaussian, Inc.),
 the Gaussian 90(TM) system (copyright 1990, Gaussian, Inc.),
 the Gaussian 88(TM) system (copyright 1988, Gaussian, Inc.),
 the Gaussian 86(TM) system (copyright 1986, Carnegie Mellon
 University), and the Gaussian 82(TM) system (copyright 1983,
 Carnegie Mellon University). Gaussian is a federally registered
 trademark of Gaussian, Inc.
  
 This software contains proprietary and confidential information,
 including trade secrets, belonging to Gaussian, Inc.
  
 This software is provided under written license and may be
 used, copied, transmitted, or stored only in accord with that
 written license.
  
 The following legend is applicable only to US Government
 contracts under FAR:
  
                    RESTRICTED RIGHTS LEGEND
  
 Use, reproduction and disclosure by the US Government is
 subject to restrictions as set forth in subparagraphs (a)
 and (c) of the Commercial Computer Software - Restricted
 Rights clause in FAR 52.227-19.
  
 Gaussian, Inc.
 340 Quinnipiac St., Bldg. 40, Wallingford CT 06492
  
  
 ---------------------------------------------------------------
 Warning -- This program may not be used in any manner that
 competes with the business of Gaussian, Inc. or will provide
 assistance to any competitor of Gaussian, Inc.  The licensee
 of this program is prohibited from giving any competitor of
 Gaussian, Inc. access to this program.  By using this program,
 the user acknowledges that Gaussian, Inc. is engaged in the
 business of creating and licensing software in the field of
 computational chemistry and represents and warrants to the
 licensee that it is not a competitor of Gaussian, Inc. and that
 it will not use this program in any manner prohibited above.
 ---------------------------------------------------------------
  

 Cite this work as:
 Gaussian 09, Revision D.01,
 M. J. Frisch, G. W. Trucks, H. B. Schlegel, G. E. Scuseria, 
 M. A. Robb, J. R. Cheeseman, G. Scalmani, V. Barone, B. Mennucci, 
 G. A. Petersson, H. Nakatsuji, M. Caricato, X. Li, H. P. Hratchian, 
 A. F. Izmaylov, J. Bloino, G. Zheng, J. L. Sonnenberg, M. Hada, 
 M. Ehara, K. Toyota, R. Fukuda, J. Hasegawa, M. Ishida, T. Nakajima, 
 Y. Honda, O. Kitao, H. Nakai, T. Vreven, J. A. Montgomery, Jr., 
 J. E. Peralta, F. Ogliaro, M. Bearpark, J. J. Heyd, E. Brothers, 
 K. N. Kudin, V. N. Staroverov, T. Keith, R. Kobayashi, J. Normand, 
 K. Raghavachari, A. Rendell, J. C. Burant, S. S. Iyengar, J. Tomasi, 
 M. Cossi, N. Rega, J. M. Millam, M. Klene, J. E. Knox, J. B. Cross, 
 V. Bakken, C. Adamo, J. Jaramillo, R. Gomperts, R. E. Stratmann, 
 O. Yazyev, A. J. Austin, R. Cammi, C. Pomelli, J. W. Ochterski, 
 R. L. Martin, K. Morokuma, V. G. Zakrzewski, G. A. Voth, 
 P. Salvador, J. J. Dannenberg, S. Dapprich, A. D. Daniels, 
 O. Farkas, J. B. Foresman, J. V. Ortiz, J. Cioslowski, 
 and D. J. Fox, Gaussian, Inc., Wallingford CT, 2013.
 
 ******************************************
 Gaussian 09:  AS64L-G09RevD.01 24-Apr-2013
                 8-Dec-2018 
 ******************************************
 %Chk=CH400175
 %Mem=2GB
 %NProcShared=16
 Will use up to   16 processors via shared memory.
 ---------------------------------------------
 #T M05/Gen test Massage SCF=(tight,maxcyc=40)
 ---------------------------------------------
 -------
 M05 opt
 -------
 Symbolic Z-matrix:
 Charge =  0 Multiplicity = 1
 6                     0.        0.        0. 
 1                     0.97489   0.       -0.52495 
 1                    -0.54029  -0.93995  -0.2249 
 1                     0.16862   0.07665   1.09164 
 1                    -0.60323   0.86329  -0.3418 
 0                    -0.6451    0.        0.34737 
 0                     0.35751   0.62198   0.14882 
 0                    -0.11158  -0.05072  -0.72235 
 0                     0.39917  -0.57125   0.22617 
 6                     0.        0.        3.68097 
 1                    -0.40095  -0.14124   4.70336 
 1                     0.89058  -0.643     3.54169 
 1                    -0.77438  -0.27636   2.93939 
 1                     0.28475   1.0606    3.53945 
 0                     0.26531   0.09346   3.00444 
 0                    -0.58931   0.42548   3.77314 
 0                     0.51242   0.18287   4.17169 
 0                    -0.18842  -0.70182   3.77462 
 
                    Distance matrix (angstroms):
                    1          2          3          4          5
     1  C    0.000000
     2  H    1.107242   0.000000
     3  H    1.107242   1.808119   0.000000
     4  H    1.107243   1.808119   1.808119   0.000000
     5  H    1.107243   1.808119   1.808119   1.808119   0.000000
     6  Bq   0.732679   1.839921   1.105427   1.105427   1.105427
     7  Bq   0.732679   1.105427   1.839921   1.105427   1.105427
     8  Bq   0.732679   1.105427   1.105427   1.839921   1.105427
     9  Bq   0.732679   1.105427   1.105427   1.105427   1.839921
    10  C    3.680969   4.317424   4.053541   2.595947   4.158341
    11  H    4.722528   5.408147   4.994498   3.662840   5.148161
    12  H    3.708116   4.118017   4.040136   2.653649   4.425136
    13  H    3.052219   3.890752   3.241579   2.104294   3.477680
    14  H    3.705894   4.256816   4.342022   2.640721   3.986413
    15  Bq   3.017580   3.601225   3.485045   1.915318   3.541795
    16  Bq   3.842509   4.593614   4.225051   2.808304   4.138179
    17  Bq   4.207015   4.722889   4.658201   3.100994   4.698847
    18  Bq   3.843927   4.509112   4.022016   2.816357   4.423401
                    6          7          8          9         10
     6  Bq   0.000000
     7  Bq   1.196459   0.000000
     8  Bq   1.196459   1.196459   0.000000
     9  Bq   1.196459   1.196459   1.196459   0.000000
    10  C    3.395448   3.604271   4.405028   3.524386   0.000000
    11  H    4.365114   4.679915   5.434175   4.568401   1.107242
    12  H    3.602146   3.660039   4.420086   3.352503   1.107243
    13  H    2.609917   3.142527   3.728077   2.970811   1.107243
    14  H    3.489826   3.419659   4.422112   3.695111   1.107242
    15  Bq   2.810274   2.905583   3.748578   2.859816   0.732679
    16  Bq   3.452542   3.751103   4.545813   3.814646   0.732679
    17  Bq   3.999840   4.049726   4.939186   4.018533   0.732679
    18  Bq   3.528052   3.898319   4.544509   3.599135   0.732679
                   11         12         13         14         15
    11  H    0.000000
    12  H    1.808119   0.000000
    13  H    1.808119   1.808119   0.000000
    14  H    1.808119   1.808119   1.808119   0.000000
    15  Bq   1.839921   1.105427   1.105427   1.105427   0.000000
    16  Bq   1.105427   1.839921   1.105427   1.105427   1.196459
    17  Bq   1.105427   1.105427   1.839921   1.105427   1.196459
    18  Bq   1.105427   1.105427   1.105427   1.839921   1.196459
                   16         17         18
    16  Bq   0.000000
    17  Bq   1.196459   0.000000
    18  Bq   1.196459   1.196459   0.000000
 Symmetry turned off by external request.
 Symmetry turned off:
 Cannot cope with ghost atoms or with translation vectors.
 Framework group  C1[X(C2H8)]
 NUMDOF-- NAT=    10 NAtoms=    18
 Deg. of freedom     0
 Rotational constants (GHZ):     76.6916055      4.3870432      4.3870432
 Warning:  center   6 has no basis functions!
 Warning:  center   7 has no basis functions!
 Warning:  center   8 has no basis functions!
 Warning:  center   9 has no basis functions!
 Warning:  center  15 has no basis functions!
 Warning:  center  16 has no basis functions!
 Warning:  center  17 has no basis functions!
 Warning:  center  18 has no basis functions!
   276 basis functions,   360 primitive gaussians,   310 cartesian basis functions
    10 alpha electrons       10 beta electrons
       nuclear repulsion energy        40.8703570818 Hartrees.
 IMHF & INEx in M05                  614413                  385587
 NAtoms=   18 NActive=   18 NUniq=   18 SFac= 1.00D+00 NAtFMM=   60 NAOKFM=F Big=F
 ExpMin= 2.53D-02 ExpMax= 8.24D+03 ExpMxC= 2.81D+02 IAcc=3 IRadAn=         5 AccDes= 0.00D+00
 Harris functional with IExCor= 1009 and IRadAn=       5 diagonalized for initial guess.
 HarFok:  IExCor= 1009 AccDes= 0.00D+00 IRadAn=         5 IDoV= 1 UseB2=F ITyADJ=14
 ICtDFT=  3500011 ScaDFX=  1.000000  1.000000  1.000000  1.000000
 FoFCou: FMM=F IPFlag=           0 FMFlag=      100000 FMFlg1=           0
         NFxFlg=           0 DoJE=T BraDBF=F KetDBF=T FulRan=T
         wScrn=  0.000000 ICntrl=     500 IOpCl=  0 I1Cent=   200000004 NGrid=           0
         NMat0=    1 NMatS0=      1 NMatT0=    0 NMatD0=    1 NMtDS0=    0 NMtDT0=    0
 Symmetry not used in FoFCou.
 SCF Done:  E(RM05) =  -81.8212309981     A.U. after    9 cycles
            NFock=  9  Conv=0.13D-08     -V/T= 2.0124

 **********************************************************************

            Population analysis using the SCF density.

 **********************************************************************

 Alpha  occ. eigenvalues --  -10.74586 -10.74194  -0.83212  -0.82334  -0.50521
 Alpha  occ. eigenvalues --   -0.48985  -0.48951  -0.48507  -0.48472  -0.46895
 Alpha virt. eigenvalues --   -0.00444   0.01403   0.02331   0.02381   0.03855
 Alpha virt. eigenvalues --    0.04372   0.04540   0.06642   0.08095   0.08405
 Alpha virt. eigenvalues --    0.09115   0.09746   0.10439   0.10721   0.12318
 Alpha virt. eigenvalues --    0.12973   0.14653   0.15045   0.15354   0.15714
 Alpha virt. eigenvalues --    0.16082   0.16346   0.17710   0.21581   0.23869
 Alpha virt. eigenvalues --    0.24494   0.25771   0.26405   0.26581   0.27514
 Alpha virt. eigenvalues --    0.28067   0.28939   0.29084   0.29620   0.30914
 Alpha virt. eigenvalues --    0.31025   0.31994   0.32762   0.33620   0.33905
 Alpha virt. eigenvalues --    0.34058   0.34497   0.35432   0.35695   0.36344
 Alpha virt. eigenvalues --    0.37338   0.38569   0.39366   0.39910   0.40858
 Alpha virt. eigenvalues --    0.42864   0.43168   0.45509   0.46550   0.47203
 Alpha virt. eigenvalues --    0.47953   0.51447   0.53494   0.57394   0.59014
 Alpha virt. eigenvalues --    0.61747   0.65198   0.66792   0.68406   0.70084
 Alpha virt. eigenvalues --    0.71077   0.71528   0.72162   0.73206   0.74023
 Alpha virt. eigenvalues --    0.76116   0.77043   0.77563   0.78567   0.78866
 Alpha virt. eigenvalues --    0.80117   0.81675   0.82499   0.83034   0.84284
 Alpha virt. eigenvalues --    0.85299   0.86033   0.86208   0.87654   0.88696
 Alpha virt. eigenvalues --    0.89378   0.90835   0.91950   0.93007   0.94045
 Alpha virt. eigenvalues --    0.95036   0.96035   0.96549   0.97139   0.98184
 Alpha virt. eigenvalues --    0.99453   1.00248   1.01378   1.02305   1.04325
 Alpha virt. eigenvalues --    1.05204   1.06791   1.08934   1.09603   1.09786
 Alpha virt. eigenvalues --    1.11346   1.12003   1.14008   1.14633   1.15935
 Alpha virt. eigenvalues --    1.17223   1.19278   1.25007   1.27032   1.29005
 Alpha virt. eigenvalues --    1.33176   1.36882   1.41105   1.42726   1.43381
 Alpha virt. eigenvalues --    1.44754   1.45474   1.46338   1.47258   1.47569
 Alpha virt. eigenvalues --    1.47882   1.48681   1.51896   1.53634   1.55435
 Alpha virt. eigenvalues --    1.57365   1.59053   1.60803   1.61218   1.63211
 Alpha virt. eigenvalues --    1.64207   1.65075   1.69119   1.69491   1.69818
 Alpha virt. eigenvalues --    1.71855   1.75482   1.76561   1.78944   1.81550
 Alpha virt. eigenvalues --    1.83017   1.84130   1.85938   1.88471   1.92998
 Alpha virt. eigenvalues --    1.97362   1.99099   1.99831   2.01115   2.02486
 Alpha virt. eigenvalues --    2.05600   2.06287   2.09889   2.13667   2.18815
 Alpha virt. eigenvalues --    2.41061   2.60281   2.77623   2.84030   2.85814
 Alpha virt. eigenvalues --    2.90285   2.93077   2.93798   2.96667   2.99931
 Alpha virt. eigenvalues --    3.16376   3.19508   3.21200   3.21889   3.23294
 Alpha virt. eigenvalues --    3.23904   3.24165   3.26268   3.26755   3.28226
 Alpha virt. eigenvalues --    3.29129   3.30210   3.33528   3.38108   3.39565
 Alpha virt. eigenvalues --    3.49258   3.57583   3.58959   3.59549   3.60702
 Alpha virt. eigenvalues --    3.61561   3.68361   3.71362   3.71673   3.72001
 Alpha virt. eigenvalues --    3.72384   3.73559   3.74622   3.77069   3.77638
 Alpha virt. eigenvalues --    3.80837   3.80977   3.81775   3.81998   3.83223
 Alpha virt. eigenvalues --    3.84587   3.87300   3.87447   3.90269   4.05890
 Alpha virt. eigenvalues --    4.18449   4.19048   4.19297   4.19764   4.22076
 Alpha virt. eigenvalues --    4.23238   4.32906   4.34202   4.35686   4.36886
 Alpha virt. eigenvalues --    4.38848   4.39539   4.40794   4.42696   4.43671
 Alpha virt. eigenvalues --    4.49002   4.49838   4.51749   4.52953   4.53468
 Alpha virt. eigenvalues --    4.57278   4.59866   4.78457   4.79211   4.80150
 Alpha virt. eigenvalues --    4.80261   4.82319   4.84069   4.85509   5.05657
 Alpha virt. eigenvalues --    5.14197   5.14760   5.15250   5.16254   5.16759
 Alpha virt. eigenvalues --    5.17553   5.22806   5.26115   5.32565   5.32742
 Alpha virt. eigenvalues --    5.33592   5.35318   5.57991   5.58510   5.59030
 Alpha virt. eigenvalues --    5.60276   5.61389   5.68462   6.03798   6.07273
 Alpha virt. eigenvalues --    6.07456   6.09815   6.12017   6.14858  16.89875
 Alpha virt. eigenvalues --   17.22608
          Condensed to atoms (all electrons):
 Mulliken charges:
               1
     1  C   -1.929057
     2  H    0.409416
     3  H    0.406022
     4  H    0.695821
     5  H    0.424720
     6  Bq   0.000000
     7  Bq   0.000000
     8  Bq   0.000000
     9  Bq   0.000000
    10  C   -1.900167
    11  H    0.405397
    12  H    0.478925
    13  H    0.533107
    14  H    0.475816
    15  Bq   0.000000
    16  Bq   0.000000
    17  Bq   0.000000
    18  Bq   0.000000
 Sum of Mulliken charges =  -0.00000
 Mulliken charges with hydrogens summed into heavy atoms:
               1
     1  C   -1.929057
     6  Bq   0.000000
     7  Bq   1.120542
     8  Bq   0.406022
     9  Bq   0.409416
    10  C   -1.900167
    15  Bq   0.478925
    16  Bq   0.533107
    17  Bq   0.881213
    18  Bq   0.000000
 Electronic spatial extent (au):  <R**2>=            556.8610
 Charge=             -0.0000 electrons
 Dipole moment (field-independent basis, Debye):
    X=             -0.0034    Y=             -0.0013    Z=              0.0900  Tot=              0.0900

 Test job not archived.
 1\1\GINC-CHIMERA-NODE56\SP\RM05\Gen\C2H8\CONNORNM\08-Dec-2018\0\\#T M0
 5/Gen test Massage SCF=(tight,maxcyc=40)\\M05 opt\\0,1\C,0,0.,0.,0.\H,
 0,0.97489288,0.,-0.52494745\H,0,-0.54028559,-0.93994639,-0.22489601\H,
 0,0.16862481,0.07665456,1.091639\H,0,-0.6032321,0.86329184,-0.34179554
 \Bq,0,-0.64510092,0.,0.34736543\Bq,0,0.3575149,0.62197632,0.14881699\B
 q,0,-0.11158151,-0.05072345,-0.72235354\Bq,0,0.39916753,-0.57125287,0.
 22617112\C,0,0.,0.,3.68096936\H,0,-0.40095014,-0.14124265,4.70335649\H
 ,0,0.89058293,-0.64299933,3.54168595\H,0,-0.77438171,-0.27635959,2.939
 38706\H,0,0.28474892,1.06060157,3.53944793\Bq,0,0.26531459,0.09346233,
 3.00444079\Bq,0,-0.58931179,0.42548209,3.77313523\Bq,0,0.51241973,0.18
 28712,4.17168524\Bq,0,-0.18842254,-0.70181562,3.77461616\\Version=AS64
 L-G09RevD.01\HF=-81.821231\RMSD=1.285e-09\Dipole=-0.0013356,-0.0005202
 ,0.0353906\Quadrupole=-0.0188948,-0.0188509,0.0377457,-0.0002252,-0.00
 85141,-0.0039721\PG=C01 [X(C2H8)]\\@


 VIRTUE IS LEARNED AT YOUR MOTHER'S KNEE,
 VICES ARE PICKED UP AT SOME OTHER JOINT.
 Job cpu time:       0 days  0 hours 15 minutes  6.3 seconds.
 File lengths (MBytes):  RWF=     41 Int=      0 D2E=      0 Chk=      4 Scr=      1
 Normal termination of Gaussian 09 at Sat Dec  8 15:29:12 2018.
