 Entering Gaussian System, Link 0=/data/szalewicgrp/connornm/opt/Gaussian/g09-M05-par/g09/g09
 AtFile(1): aug-cc-pVTZ.gbs
 Initial command:
 /data/szalewicgrp/connornm/opt/Gaussian/g09-M05-par/g09/l1.exe "/scratch/local/Gau-48520.inp" -scrdir="/scratch/local/"
 Entering Link 1 = /data/szalewicgrp/connornm/opt/Gaussian/g09-M05-par/g09/l1.exe PID=     48521.
  
 Copyright (c) 1988,1990,1992,1993,1995,1998,2003,2009,2013,
            Gaussian, Inc.  All Rights Reserved.
  
 This is part of the Gaussian(R) 09 program.  It is based on
 the Gaussian(R) 03 system (copyright 2003, Gaussian, Inc.),
 the Gaussian(R) 98 system (copyright 1998, Gaussian, Inc.),
 the Gaussian(R) 94 system (copyright 1995, Gaussian, Inc.),
 the Gaussian 92(TM) system (copyright 1992, Gaussian, Inc.),
 the Gaussian 90(TM) system (copyright 1990, Gaussian, Inc.),
 the Gaussian 88(TM) system (copyright 1988, Gaussian, Inc.),
 the Gaussian 86(TM) system (copyright 1986, Carnegie Mellon
 University), and the Gaussian 82(TM) system (copyright 1983,
 Carnegie Mellon University). Gaussian is a federally registered
 trademark of Gaussian, Inc.
  
 This software contains proprietary and confidential information,
 including trade secrets, belonging to Gaussian, Inc.
  
 This software is provided under written license and may be
 used, copied, transmitted, or stored only in accord with that
 written license.
  
 The following legend is applicable only to US Government
 contracts under FAR:
  
                    RESTRICTED RIGHTS LEGEND
  
 Use, reproduction and disclosure by the US Government is
 subject to restrictions as set forth in subparagraphs (a)
 and (c) of the Commercial Computer Software - Restricted
 Rights clause in FAR 52.227-19.
  
 Gaussian, Inc.
 340 Quinnipiac St., Bldg. 40, Wallingford CT 06492
  
  
 ---------------------------------------------------------------
 Warning -- This program may not be used in any manner that
 competes with the business of Gaussian, Inc. or will provide
 assistance to any competitor of Gaussian, Inc.  The licensee
 of this program is prohibited from giving any competitor of
 Gaussian, Inc. access to this program.  By using this program,
 the user acknowledges that Gaussian, Inc. is engaged in the
 business of creating and licensing software in the field of
 computational chemistry and represents and warrants to the
 licensee that it is not a competitor of Gaussian, Inc. and that
 it will not use this program in any manner prohibited above.
 ---------------------------------------------------------------
  

 Cite this work as:
 Gaussian 09, Revision D.01,
 M. J. Frisch, G. W. Trucks, H. B. Schlegel, G. E. Scuseria, 
 M. A. Robb, J. R. Cheeseman, G. Scalmani, V. Barone, B. Mennucci, 
 G. A. Petersson, H. Nakatsuji, M. Caricato, X. Li, H. P. Hratchian, 
 A. F. Izmaylov, J. Bloino, G. Zheng, J. L. Sonnenberg, M. Hada, 
 M. Ehara, K. Toyota, R. Fukuda, J. Hasegawa, M. Ishida, T. Nakajima, 
 Y. Honda, O. Kitao, H. Nakai, T. Vreven, J. A. Montgomery, Jr., 
 J. E. Peralta, F. Ogliaro, M. Bearpark, J. J. Heyd, E. Brothers, 
 K. N. Kudin, V. N. Staroverov, T. Keith, R. Kobayashi, J. Normand, 
 K. Raghavachari, A. Rendell, J. C. Burant, S. S. Iyengar, J. Tomasi, 
 M. Cossi, N. Rega, J. M. Millam, M. Klene, J. E. Knox, J. B. Cross, 
 V. Bakken, C. Adamo, J. Jaramillo, R. Gomperts, R. E. Stratmann, 
 O. Yazyev, A. J. Austin, R. Cammi, C. Pomelli, J. W. Ochterski, 
 R. L. Martin, K. Morokuma, V. G. Zakrzewski, G. A. Voth, 
 P. Salvador, J. J. Dannenberg, S. Dapprich, A. D. Daniels, 
 O. Farkas, J. B. Foresman, J. V. Ortiz, J. Cioslowski, 
 and D. J. Fox, Gaussian, Inc., Wallingford CT, 2013.
 
 ******************************************
 Gaussian 09:  AS64L-G09RevD.01 24-Apr-2013
                 8-Dec-2018 
 ******************************************
 %Chk=CH400241
 %Mem=2GB
 %NProcShared=16
 Will use up to   16 processors via shared memory.
 ---------------------------------------------
 #T M05/Gen test Massage SCF=(tight,maxcyc=40)
 ---------------------------------------------
 -------
 M05 opt
 -------
 Symbolic Z-matrix:
 Charge =  0 Multiplicity = 1
 6                     0.        0.        0. 
 1                     1.09082   0.        0.18997 
 1                    -0.45113   0.9108    0.43923 
 1                    -0.18452  -0.01363  -1.09168 
 1                    -0.45518  -0.89717   0.46248 
 0                    -0.72181   0.       -0.12571 
 0                     0.29852  -0.60269  -0.29064 
 0                     0.1221    0.00902   0.72238 
 0                     0.3012    0.59367  -0.30603 
 6                     0.        0.        3.79855 
 1                     0.7893    0.61386   3.32298 
 1                     0.07707   0.08818   4.89958 
 1                    -0.99462   0.35736   3.46839 
 1                     0.12825  -1.05941   3.50326 
 0                    -0.52229  -0.4062    4.11325 
 0                    -0.051    -0.05835   3.06999 
 0                     0.65816  -0.23647   4.01703 
 0                    -0.08487   0.70102   3.99395 
 
                    Distance matrix (angstroms):
                    1          2          3          4          5
     1  C    0.000000
     2  H    1.107242   0.000000
     3  H    1.107242   1.808119   0.000000
     4  H    1.107242   1.808119   1.808119   0.000000
     5  H    1.107243   1.808119   1.808119   1.808119   0.000000
     6  Bq   0.732679   1.839921   1.105427   1.105427   1.105427
     7  Bq   0.732679   1.105427   1.839921   1.105427   1.105427
     8  Bq   0.732679   1.105427   1.105427   1.839921   1.105427
     9  Bq   0.732679   1.105427   1.105427   1.105427   1.839921
    10  C    3.798554   3.769848   3.509723   4.893727   3.484467
    11  H    3.470156   3.206782   3.153228   4.564120   3.466176
    12  H    4.900984   4.818290   4.566234   5.997832   4.576258
    13  H    3.625841   3.901899   3.126903   4.646301   3.301571
    14  H    3.662190   3.609262   3.688591   4.722809   3.100498
    15  Bq   4.166127   4.261366   3.903589   5.230627   3.684250
    16  Bq   3.070963   3.098651   2.832005   4.164042   2.768768
    17  Bq   4.077449   3.858687   3.917576   5.182527   3.782969
    18  Bq   4.055896   4.042764   3.579698   5.136561   3.893927
                    6          7          8          9         10
     6  Bq   0.000000
     7  Bq   1.196459   0.000000
     8  Bq   1.196459   1.196459   0.000000
     9  Bq   1.196459   1.196459   1.196459   0.000000
    10  C    3.990093   4.144136   3.078612   4.158215   0.000000
    11  H    3.814931   3.844357   2.752109   3.661737   1.107243
    12  H    5.089161   5.240686   4.178200   5.234898   1.107243
    13  H    3.622110   4.089528   2.984794   3.997653   1.107243
    14  H    3.874839   3.825087   2.979075   4.156111   1.107242
    15  Bq   4.263048   4.484038   3.476443   4.605203   0.732679
    16  Bq   3.265861   3.422320   2.354944   3.456391   0.732679
    17  Bq   4.372926   4.338140   3.346989   4.416487   0.732679
    18  Bq   4.227143   4.494930   3.350360   4.318611   0.732679
                   11         12         13         14         15
    11  H    0.000000
    12  H    1.808119   0.000000
    13  H    1.808119   1.808119   0.000000
    14  H    1.808119   1.808119   1.808119   0.000000
    15  Bq   1.839921   1.105427   1.105427   1.105427   0.000000
    16  Bq   1.105427   1.839921   1.105427   1.105427   1.196459
    17  Bq   1.105427   1.105427   1.839921   1.105427   1.196459
    18  Bq   1.105427   1.105427   1.105427   1.839921   1.196459
                   16         17         18
    16  Bq   0.000000
    17  Bq   1.196459   0.000000
    18  Bq   1.196459   1.196459   0.000000
 Symmetry turned off by external request.
 Symmetry turned off:
 Cannot cope with ghost atoms or with translation vectors.
 Framework group  C1[X(C2H8)]
 NUMDOF-- NAT=    10 NAtoms=    18
 Deg. of freedom     0
 Rotational constants (GHZ):     76.6916056      4.1340589      4.1340589
 Warning:  center   6 has no basis functions!
 Warning:  center   7 has no basis functions!
 Warning:  center   8 has no basis functions!
 Warning:  center   9 has no basis functions!
 Warning:  center  15 has no basis functions!
 Warning:  center  16 has no basis functions!
 Warning:  center  17 has no basis functions!
 Warning:  center  18 has no basis functions!
   276 basis functions,   360 primitive gaussians,   310 cartesian basis functions
    10 alpha electrons       10 beta electrons
       nuclear repulsion energy        40.2627062913 Hartrees.
 IMHF & INEx in M05                  614413                  385587
 NAtoms=   18 NActive=   18 NUniq=   18 SFac= 1.00D+00 NAtFMM=   60 NAOKFM=F Big=F
 ExpMin= 2.53D-02 ExpMax= 8.24D+03 ExpMxC= 2.81D+02 IAcc=3 IRadAn=         5 AccDes= 0.00D+00
 Harris functional with IExCor= 1009 and IRadAn=       5 diagonalized for initial guess.
 HarFok:  IExCor= 1009 AccDes= 0.00D+00 IRadAn=         5 IDoV= 1 UseB2=F ITyADJ=14
 ICtDFT=  3500011 ScaDFX=  1.000000  1.000000  1.000000  1.000000
 FoFCou: FMM=F IPFlag=           0 FMFlag=      100000 FMFlg1=           0
         NFxFlg=           0 DoJE=T BraDBF=F KetDBF=T FulRan=T
         wScrn=  0.000000 ICntrl=     500 IOpCl=  0 I1Cent=   200000004 NGrid=           0
         NMat0=    1 NMatS0=      1 NMatT0=    0 NMatD0=    1 NMtDS0=    0 NMtDT0=    0
 Symmetry not used in FoFCou.
 SCF Done:  E(RM05) =  -91.8332725512     A.U. after   12 cycles
            NFock= 12  Conv=0.26D-08     -V/T= 2.0337

 **********************************************************************

            Population analysis using the SCF density.

 **********************************************************************

 Alpha  occ. eigenvalues --  -12.06247 -12.06236  -0.99837  -0.99469  -0.71788
 Alpha  occ. eigenvalues --   -0.71632  -0.71566  -0.71214  -0.71160  -0.71019
 Alpha virt. eigenvalues --   -0.11624  -0.07169  -0.04637  -0.04391  -0.02695
 Alpha virt. eigenvalues --   -0.02212  -0.01955  -0.01547  -0.01116   0.00024
 Alpha virt. eigenvalues --    0.00340   0.00422   0.00559   0.03368   0.04616
 Alpha virt. eigenvalues --    0.05399   0.05652   0.06982   0.07117   0.07148
 Alpha virt. eigenvalues --    0.07797   0.07832   0.08844   0.10836   0.11234
 Alpha virt. eigenvalues --    0.14097   0.16743   0.17013   0.17485   0.17643
 Alpha virt. eigenvalues --    0.17978   0.19536   0.20271   0.20647   0.20951
 Alpha virt. eigenvalues --    0.21357   0.21715   0.21923   0.22781   0.24133
 Alpha virt. eigenvalues --    0.24971   0.25262   0.25368   0.25495   0.25621
 Alpha virt. eigenvalues --    0.25719   0.26993   0.30477   0.30957   0.31402
 Alpha virt. eigenvalues --    0.32950   0.33564   0.34521   0.35318   0.35410
 Alpha virt. eigenvalues --    0.38144   0.39272   0.40175   0.41483   0.42402
 Alpha virt. eigenvalues --    0.43780   0.47253   0.47431   0.49139   0.50708
 Alpha virt. eigenvalues --    0.53114   0.55573   0.55982   0.57326   0.57456
 Alpha virt. eigenvalues --    0.60739   0.61949   0.62792   0.63441   0.63958
 Alpha virt. eigenvalues --    0.64032   0.64808   0.65817   0.66958   0.67924
 Alpha virt. eigenvalues --    0.69434   0.69751   0.70613   0.71425   0.71477
 Alpha virt. eigenvalues --    0.71899   0.71948   0.72667   0.73592   0.74128
 Alpha virt. eigenvalues --    0.75259   0.76707   0.77304   0.77964   0.78591
 Alpha virt. eigenvalues --    0.81082   0.82953   0.83448   0.85315   0.85772
 Alpha virt. eigenvalues --    0.86654   0.87381   0.88070   0.89087   0.92552
 Alpha virt. eigenvalues --    0.92859   0.94100   0.94687   0.95165   0.95550
 Alpha virt. eigenvalues --    0.96540   0.96924   1.00939   1.02339   1.04622
 Alpha virt. eigenvalues --    1.07356   1.09688   1.15182   1.22342   1.23958
 Alpha virt. eigenvalues --    1.24449   1.25099   1.25481   1.26900   1.27173
 Alpha virt. eigenvalues --    1.27943   1.29101   1.29511   1.30848   1.31698
 Alpha virt. eigenvalues --    1.32284   1.35280   1.37895   1.39971   1.40867
 Alpha virt. eigenvalues --    1.45901   1.46336   1.46729   1.47292   1.47580
 Alpha virt. eigenvalues --    1.49280   1.50258   1.51918   1.54649   1.55638
 Alpha virt. eigenvalues --    1.57743   1.58661   1.60687   1.61221   1.62622
 Alpha virt. eigenvalues --    1.72340   1.72782   1.74987   1.76005   1.77910
 Alpha virt. eigenvalues --    1.78081   1.87641   1.88080   1.91788   1.92311
 Alpha virt. eigenvalues --    2.11897   2.13178   2.21716   2.40150   2.46836
 Alpha virt. eigenvalues --    2.47830   2.47886   2.48449   2.50377   2.58739
 Alpha virt. eigenvalues --    2.95314   2.95939   2.98311   2.98386   2.98756
 Alpha virt. eigenvalues --    2.99099   2.99331   3.01625   3.02211   3.03832
 Alpha virt. eigenvalues --    3.03917   3.06071   3.08155   3.08583   3.08769
 Alpha virt. eigenvalues --    3.16175   3.21504   3.21662   3.21704   3.22065
 Alpha virt. eigenvalues --    3.22347   3.32626   3.39720   3.43622   3.44267
 Alpha virt. eigenvalues --    3.44328   3.44705   3.45407   3.46197   3.46914
 Alpha virt. eigenvalues --    3.48341   3.49212   3.49892   3.50946   3.51947
 Alpha virt. eigenvalues --    3.54700   3.57378   3.59081   3.59713   3.62904
 Alpha virt. eigenvalues --    3.90314   3.90600   3.91071   3.91404   3.92557
 Alpha virt. eigenvalues --    3.92647   4.02020   4.02355   4.03027   4.03230
 Alpha virt. eigenvalues --    4.03396   4.04004   4.04408   4.07823   4.09655
 Alpha virt. eigenvalues --    4.09965   4.16878   4.17146   4.17697   4.17960
 Alpha virt. eigenvalues --    4.19539   4.21962   4.31553   4.33114   4.45863
 Alpha virt. eigenvalues --    4.46568   4.46907   4.47115   4.47948   4.48250
 Alpha virt. eigenvalues --    4.81510   4.83879   4.88217   4.89031   4.89214
 Alpha virt. eigenvalues --    4.89616   4.89923   4.90287   5.01752   5.02123
 Alpha virt. eigenvalues --    5.02390   5.02751   5.15436   5.15620   5.15742
 Alpha virt. eigenvalues --    5.15997   5.16710   5.19881   5.60774   5.61627
 Alpha virt. eigenvalues --    5.61957   5.61998   5.66704   5.67973  14.90193
 Alpha virt. eigenvalues --   15.15179
          Condensed to atoms (all electrons):
 Mulliken charges:
               1
     1  C    0.404159
     2  H   -0.050489
     3  H   -0.022572
     4  H   -0.326795
     5  H   -0.006119
     6  Bq   0.000000
     7  Bq   0.000000
     8  Bq   0.000000
     9  Bq   0.000000
    10  C    0.403464
    11  H   -0.011249
    12  H   -0.314486
    13  H   -0.052209
    14  H   -0.023705
    15  Bq   0.000000
    16  Bq   0.000000
    17  Bq   0.000000
    18  Bq   0.000000
 Sum of Mulliken charges =  -0.00000
 Mulliken charges with hydrogens summed into heavy atoms:
               1
     1  C    0.404159
     6  Bq  -0.326795
     7  Bq  -0.050489
     8  Bq  -0.006119
     9  Bq  -0.022572
    10  C    0.403464
    15  Bq  -0.366695
    16  Bq   0.000000
    17  Bq  -0.023705
    18  Bq  -0.011249
 Electronic spatial extent (au):  <R**2>=            586.3121
 Charge=             -0.0000 electrons
 Dipole moment (field-independent basis, Debye):
    X=             -0.0008    Y=              0.0007    Z=              0.0026  Tot=              0.0028

 Test job not archived.
 1\1\GINC-CHIMERA-NODE15\SP\RM05\Gen\C2H8\CONNORNM\08-Dec-2018\0\\#T M0
 5/Gen test Massage SCF=(tight,maxcyc=40)\\M05 opt\\0,1\C,0,0.,0.,0.\H,
 0,1.09082369,0.,0.18997271\H,0,-0.45112953,0.91079599,0.43922518\H,0,-
 0.18451517,-0.0136266,-1.09167505\H,0,-0.45517899,-0.89716939,0.462477
 17\Bq,0,-0.72181404,0.,-0.12570773\Bq,0,0.29851903,-0.60268707,-0.2906
 4174\Bq,0,0.12209639,0.00901692,0.7223774\Bq,0,0.30119861,0.59367015,-
 0.30602792\C,0,0.,0.,3.7985537\H,0,0.78929633,0.61385904,3.32297579\H,
 0,0.07707139,0.08818305,4.89958491\H,0,-0.99462074,0.35736347,3.468391
 78\H,0,0.12825302,-1.05940555,3.50326234\Bq,0,-0.52228896,-0.40619953,
 4.11325058\Bq,0,-0.05099927,-0.05835202,3.06998521\Bq,0,0.65815513,-0.
 23647265,4.01702669\Bq,0,-0.0848669,0.7010242,3.99395233\\Version=AS64
 L-G09RevD.01\HF=-91.8332726\RMSD=2.564e-09\Dipole=-0.0003004,0.0002582
 ,0.0010419\Quadrupole=-0.0500844,-0.0520563,0.1021407,-0.0011936,-0.00
 15053,0.0003473\PG=C01 [X(C2H8)]\\@


 CHARLIE BROWN.."I CAN'T GET THAT STUPID KITE IN THE
 AIR... I CAN'T... I C A N N O T..."
 LUCY.."OH COME NOW CHARLIE BROWN...THAT'S NO WAY TO TALK...
 THE TROUBLE WITH YOU IS YOU DON'T BELIEVE IN YOURSELF... YOU
 DON'T BELIEVE IN YOUR OWN ABILITIES...  YOU'VE GOT TO SAY TO
 YOURSELF...'I BELIEVE I CAN FLY THIS KITE.'... GO AHEAD SAY
 IT...."
 CHARLIE BROWN.."I BELIEVE THAT I CAN FLY THIS STUPID
 KITE.....I BELIEVE THAT I CAN FLY THIS KITE........
 I  A C T U A L L Y  B E L I E V E  T H A T  I  C A N ******"
 LUCY.."I'LL BET YOU TEN-TO-ONE YOU'RE WRONG......."    SCHULZ
 Job cpu time:       0 days  0 hours 19 minutes 35.9 seconds.
 File lengths (MBytes):  RWF=     41 Int=      0 D2E=      0 Chk=      4 Scr=      1
 Normal termination of Gaussian 09 at Sat Dec  8 15:11:50 2018.
