 Entering Gaussian System, Link 0=/data/szalewicgrp/connornm/opt/Gaussian/g09-M05-par/g09/g09
 AtFile(1): aug-cc-pVTZ.gbs
 Initial command:
 /data/szalewicgrp/connornm/opt/Gaussian/g09-M05-par/g09/l1.exe "/scratch/local/Gau-49104.inp" -scrdir="/scratch/local/"
 Entering Link 1 = /data/szalewicgrp/connornm/opt/Gaussian/g09-M05-par/g09/l1.exe PID=     49105.
  
 Copyright (c) 1988,1990,1992,1993,1995,1998,2003,2009,2013,
            Gaussian, Inc.  All Rights Reserved.
  
 This is part of the Gaussian(R) 09 program.  It is based on
 the Gaussian(R) 03 system (copyright 2003, Gaussian, Inc.),
 the Gaussian(R) 98 system (copyright 1998, Gaussian, Inc.),
 the Gaussian(R) 94 system (copyright 1995, Gaussian, Inc.),
 the Gaussian 92(TM) system (copyright 1992, Gaussian, Inc.),
 the Gaussian 90(TM) system (copyright 1990, Gaussian, Inc.),
 the Gaussian 88(TM) system (copyright 1988, Gaussian, Inc.),
 the Gaussian 86(TM) system (copyright 1986, Carnegie Mellon
 University), and the Gaussian 82(TM) system (copyright 1983,
 Carnegie Mellon University). Gaussian is a federally registered
 trademark of Gaussian, Inc.
  
 This software contains proprietary and confidential information,
 including trade secrets, belonging to Gaussian, Inc.
  
 This software is provided under written license and may be
 used, copied, transmitted, or stored only in accord with that
 written license.
  
 The following legend is applicable only to US Government
 contracts under FAR:
  
                    RESTRICTED RIGHTS LEGEND
  
 Use, reproduction and disclosure by the US Government is
 subject to restrictions as set forth in subparagraphs (a)
 and (c) of the Commercial Computer Software - Restricted
 Rights clause in FAR 52.227-19.
  
 Gaussian, Inc.
 340 Quinnipiac St., Bldg. 40, Wallingford CT 06492
  
  
 ---------------------------------------------------------------
 Warning -- This program may not be used in any manner that
 competes with the business of Gaussian, Inc. or will provide
 assistance to any competitor of Gaussian, Inc.  The licensee
 of this program is prohibited from giving any competitor of
 Gaussian, Inc. access to this program.  By using this program,
 the user acknowledges that Gaussian, Inc. is engaged in the
 business of creating and licensing software in the field of
 computational chemistry and represents and warrants to the
 licensee that it is not a competitor of Gaussian, Inc. and that
 it will not use this program in any manner prohibited above.
 ---------------------------------------------------------------
  

 Cite this work as:
 Gaussian 09, Revision D.01,
 M. J. Frisch, G. W. Trucks, H. B. Schlegel, G. E. Scuseria, 
 M. A. Robb, J. R. Cheeseman, G. Scalmani, V. Barone, B. Mennucci, 
 G. A. Petersson, H. Nakatsuji, M. Caricato, X. Li, H. P. Hratchian, 
 A. F. Izmaylov, J. Bloino, G. Zheng, J. L. Sonnenberg, M. Hada, 
 M. Ehara, K. Toyota, R. Fukuda, J. Hasegawa, M. Ishida, T. Nakajima, 
 Y. Honda, O. Kitao, H. Nakai, T. Vreven, J. A. Montgomery, Jr., 
 J. E. Peralta, F. Ogliaro, M. Bearpark, J. J. Heyd, E. Brothers, 
 K. N. Kudin, V. N. Staroverov, T. Keith, R. Kobayashi, J. Normand, 
 K. Raghavachari, A. Rendell, J. C. Burant, S. S. Iyengar, J. Tomasi, 
 M. Cossi, N. Rega, J. M. Millam, M. Klene, J. E. Knox, J. B. Cross, 
 V. Bakken, C. Adamo, J. Jaramillo, R. Gomperts, R. E. Stratmann, 
 O. Yazyev, A. J. Austin, R. Cammi, C. Pomelli, J. W. Ochterski, 
 R. L. Martin, K. Morokuma, V. G. Zakrzewski, G. A. Voth, 
 P. Salvador, J. J. Dannenberg, S. Dapprich, A. D. Daniels, 
 O. Farkas, J. B. Foresman, J. V. Ortiz, J. Cioslowski, 
 and D. J. Fox, Gaussian, Inc., Wallingford CT, 2013.
 
 ******************************************
 Gaussian 09:  AS64L-G09RevD.01 24-Apr-2013
                 5-Dec-2018 
 ******************************************
 %Chk=CH400278
 %Mem=2GB
 %NProcShared=16
 Will use up to   16 processors via shared memory.
 -----------------------------------------------------------
 #T M05/Gen test Massage Symmetry=None SCF=(tight,maxcyc=60)
 -----------------------------------------------------------
 -------
 M05 opt
 -------
 Symbolic Z-matrix:
 Charge =  0 Multiplicity = 1
 6                     0.        0.        0. 
 1                     1.07048   0.       -0.28295 
 1                    -0.27771   0.99695   0.39364 
 1                    -0.61702  -0.23036  -0.89006 
 1                    -0.17575  -0.7666    0.77938 
 0                    -0.70835   0.        0.18723 
 0                     0.18376  -0.6597   -0.26048 
 0                     0.40829   0.15243   0.58897 
 0                     0.1163    0.50727  -0.51572 
 6                     0.        0.        3.95067 
 1                     0.84811  -0.45349   4.49934 
 1                    -0.23198  -0.61269   3.05804 
 1                    -0.8876    0.04052   4.61135 
 1                     0.27147   1.02566   3.63393 
 0                    -0.56121   0.30008   3.5876 
 0                     0.15351   0.40543   4.54133 
 0                     0.58734  -0.02681   3.51348 
 0                    -0.17964  -0.67869   4.16025 
 
                    Distance matrix (angstroms):
                    1          2          3          4          5
     1  C    0.000000
     2  H    1.107243   0.000000
     3  H    1.107243   1.808119   0.000000
     4  H    1.107242   1.808119   1.808119   0.000000
     5  H    1.107243   1.808119   1.808119   1.808119   0.000000
     6  Bq   0.732679   1.839921   1.105427   1.105427   1.105427
     7  Bq   0.732679   1.105427   1.839921   1.105427   1.105427
     8  Bq   0.732679   1.105427   1.105427   1.839921   1.105427
     9  Bq   0.732679   1.105427   1.105427   1.105427   1.839921
    10  C    3.950665   4.366858   3.704522   4.885325   3.267358
    11  H    4.600976   4.808887   4.497556   5.589455   3.870974
    12  H    3.127428   3.637860   3.113209   3.985212   2.284546
    13  H    4.696173   5.271617   4.367591   5.514718   3.980227
    14  H    3.785649   4.127031   3.286631   4.778442   3.400099
    15  Bq   3.643609   4.211134   3.281373   4.509315   3.028614
    16  Bq   4.561974   4.927363   4.211793   5.522492   3.954027
    17  Bq   3.562334   3.827146   3.395558   4.569800   2.933411
    18  Bq   4.219074   4.665349   4.123685   5.089003   3.382020
                    6          7          8          9         10
     6  Bq   0.000000
     7  Bq   1.196459   0.000000
     8  Bq   1.196459   1.196459   0.000000
     9  Bq   1.196459   1.196459   1.196459   0.000000
    10  C    3.829513   4.266460   3.389832   4.496608   0.000000
    11  H    4.606784   4.810374   3.981404   5.158435   1.107242
    12  H    2.973858   3.344786   2.663021   3.761302   1.107242
    13  H    4.427932   5.037145   4.227464   5.245244   1.107243
    14  H    3.727165   4.244353   3.170658   4.184790   1.107242
    15  Bq   3.416751   4.035325   3.154924   4.164039   0.732679
    16  Bq   4.457052   4.918611   3.968639   5.058216   0.732679
    17  Bq   3.569795   3.847877   2.935467   4.091651   0.732679
    18  Bq   4.065098   4.435679   3.713557   4.833097   0.732679
                   11         12         13         14         15
    11  H    0.000000
    12  H    1.808119   0.000000
    13  H    1.808119   1.808119   0.000000
    14  H    1.808119   1.808119   1.808119   0.000000
    15  Bq   1.839921   1.105427   1.105427   1.105427   0.000000
    16  Bq   1.105427   1.839921   1.105427   1.105427   1.196459
    17  Bq   1.105427   1.105427   1.839921   1.105427   1.196459
    18  Bq   1.105427   1.105427   1.105427   1.839921   1.196459
                   16         17         18
    16  Bq   0.000000
    17  Bq   1.196459   0.000000
    18  Bq   1.196459   1.196459   0.000000
 Symmetry turned off by external request.
 Rotational constants (GHZ):     76.6916055      3.8374648      3.8374648
 Warning:  center   6 has no basis functions!
 Warning:  center   7 has no basis functions!
 Warning:  center   8 has no basis functions!
 Warning:  center   9 has no basis functions!
 Warning:  center  15 has no basis functions!
 Warning:  center  16 has no basis functions!
 Warning:  center  17 has no basis functions!
 Warning:  center  18 has no basis functions!
   276 basis functions,   360 primitive gaussians,   310 cartesian basis functions
    10 alpha electrons       10 beta electrons
       nuclear repulsion energy        39.8453554533 Hartrees.
 IMHF & INEx in M05                  614413                  385587
 NAtoms=   18 NActive=   18 NUniq=   18 SFac= 1.00D+00 NAtFMM=   60 NAOKFM=F Big=F
 ExpMin= 2.53D-02 ExpMax= 8.24D+03 ExpMxC= 2.81D+02 IAcc=3 IRadAn=         5 AccDes= 0.00D+00
 Harris functional with IExCor= 1009 and IRadAn=       5 diagonalized for initial guess.
 HarFok:  IExCor= 1009 AccDes= 0.00D+00 IRadAn=         5 IDoV= 1 UseB2=F ITyADJ=14
 ICtDFT=  3500011 ScaDFX=  1.000000  1.000000  1.000000  1.000000
 FoFCou: FMM=F IPFlag=           0 FMFlag=      100000 FMFlg1=           0
         NFxFlg=           0 DoJE=T BraDBF=F KetDBF=T FulRan=T
         wScrn=  0.000000 ICntrl=     500 IOpCl=  0 I1Cent=   200000004 NGrid=           0
         NMat0=    1 NMatS0=      1 NMatT0=    0 NMatD0=    1 NMtDS0=    0 NMtDT0=    0
 Symmetry not used in FoFCou.
 SCF Done:  E(RM05) =  -89.8508989747     A.U. after   11 cycles
            NFock= 11  Conv=0.86D-08     -V/T= 2.0280

 **********************************************************************

            Population analysis using the SCF density.

 **********************************************************************

 Alpha  occ. eigenvalues --  -11.79327 -11.79310  -0.95577  -0.95181  -0.66777
 Alpha  occ. eigenvalues --   -0.65917  -0.65743  -0.65686  -0.65518  -0.64679
 Alpha virt. eigenvalues --   -0.09239  -0.05551  -0.03106  -0.02656  -0.00706
 Alpha virt. eigenvalues --    0.00009   0.00142   0.00336   0.00693   0.01012
 Alpha virt. eigenvalues --    0.01950   0.03034   0.03889   0.05327   0.06172
 Alpha virt. eigenvalues --    0.06750   0.07015   0.07519   0.07656   0.08203
 Alpha virt. eigenvalues --    0.08522   0.09394   0.10029   0.10393   0.11942
 Alpha virt. eigenvalues --    0.16457   0.18349   0.18575   0.19130   0.19632
 Alpha virt. eigenvalues --    0.19933   0.20439   0.21423   0.21760   0.22666
 Alpha virt. eigenvalues --    0.23014   0.23484   0.24251   0.24551   0.25325
 Alpha virt. eigenvalues --    0.26194   0.26569   0.26915   0.27059   0.27313
 Alpha virt. eigenvalues --    0.28238   0.28502   0.29244   0.29944   0.31551
 Alpha virt. eigenvalues --    0.33281   0.35567   0.36375   0.37636   0.38350
 Alpha virt. eigenvalues --    0.40681   0.41255   0.43284   0.44321   0.45019
 Alpha virt. eigenvalues --    0.47975   0.50307   0.50853   0.52332   0.54076
 Alpha virt. eigenvalues --    0.56729   0.58741   0.58978   0.59592   0.60224
 Alpha virt. eigenvalues --    0.61726   0.62874   0.63873   0.65344   0.66550
 Alpha virt. eigenvalues --    0.66803   0.68199   0.69598   0.69815   0.71835
 Alpha virt. eigenvalues --    0.72014   0.72571   0.73552   0.74889   0.75197
 Alpha virt. eigenvalues --    0.75846   0.76841   0.77354   0.78692   0.79232
 Alpha virt. eigenvalues --    0.79978   0.80501   0.81598   0.82605   0.83880
 Alpha virt. eigenvalues --    0.84637   0.85425   0.86313   0.88447   0.88857
 Alpha virt. eigenvalues --    0.91226   0.91664   0.92332   0.92827   0.93475
 Alpha virt. eigenvalues --    0.94738   0.95550   0.96668   0.98175   1.00051
 Alpha virt. eigenvalues --    1.00363   1.01814   1.04713   1.06260   1.12208
 Alpha virt. eigenvalues --    1.13054   1.20831   1.22311   1.26023   1.28004
 Alpha virt. eigenvalues --    1.28758   1.29609   1.30025   1.30454   1.31166
 Alpha virt. eigenvalues --    1.31666   1.32481   1.33327   1.34418   1.36597
 Alpha virt. eigenvalues --    1.37707   1.38899   1.40784   1.42149   1.45560
 Alpha virt. eigenvalues --    1.47724   1.49638   1.50965   1.51892   1.53614
 Alpha virt. eigenvalues --    1.54342   1.54579   1.56649   1.59476   1.61567
 Alpha virt. eigenvalues --    1.63028   1.64769   1.66754   1.68726   1.77461
 Alpha virt. eigenvalues --    1.78273   1.79419   1.82011   1.84180   1.85864
 Alpha virt. eigenvalues --    1.87712   1.93091   1.97349   1.97874   2.01706
 Alpha virt. eigenvalues --    2.17474   2.27990   2.35844   2.46318   2.53742
 Alpha virt. eigenvalues --    2.56317   2.58573   2.58794   2.61509   2.64621
 Alpha virt. eigenvalues --    3.01149   3.03232   3.04074   3.05236   3.05594
 Alpha virt. eigenvalues --    3.05792   3.06767   3.07238   3.08129   3.08325
 Alpha virt. eigenvalues --    3.09703   3.10415   3.12593   3.16156   3.18077
 Alpha virt. eigenvalues --    3.24559   3.29317   3.29835   3.30567   3.31062
 Alpha virt. eigenvalues --    3.32260   3.38689   3.49275   3.50559   3.50778
 Alpha virt. eigenvalues --    3.51626   3.52307   3.53109   3.53624   3.54035
 Alpha virt. eigenvalues --    3.56150   3.57458   3.58136   3.59347   3.60478
 Alpha virt. eigenvalues --    3.61649   3.63378   3.65355   3.67629   3.68253
 Alpha virt. eigenvalues --    3.96505   3.97038   3.97704   3.99663   4.01084
 Alpha virt. eigenvalues --    4.02004   4.08518   4.10321   4.10775   4.11064
 Alpha virt. eigenvalues --    4.12795   4.13470   4.15082   4.15959   4.16586
 Alpha virt. eigenvalues --    4.20566   4.25292   4.25489   4.26658   4.26819
 Alpha virt. eigenvalues --    4.28595   4.30891   4.39719   4.45024   4.53413
 Alpha virt. eigenvalues --    4.53791   4.54877   4.55419   4.57112   4.59933
 Alpha virt. eigenvalues --    4.89829   4.94423   4.95507   4.95923   4.96270
 Alpha virt. eigenvalues --    4.96414   4.97844   5.00009   5.08978   5.09322
 Alpha virt. eigenvalues --    5.09902   5.11148   5.23460   5.24508   5.24591
 Alpha virt. eigenvalues --    5.25268   5.26920   5.34707   5.70465   5.70753
 Alpha virt. eigenvalues --    5.71367   5.73050   5.75565   5.79680  15.18497
 Alpha virt. eigenvalues --   15.57098
          Condensed to atoms (all electrons):
 Mulliken charges:
               1
     1  C   -0.244385
     2  H    0.027111
     3  H    0.040339
     4  H   -0.167545
     5  H    0.320243
     6  Bq   0.000000
     7  Bq   0.000000
     8  Bq   0.000000
     9  Bq   0.000000
    10  C   -0.338144
    11  H   -0.074599
    12  H    0.645204
    13  H   -0.148888
    14  H   -0.059336
    15  Bq   0.000000
    16  Bq   0.000000
    17  Bq   0.000000
    18  Bq   0.000000
 Sum of Mulliken charges =  -0.00000
 Mulliken charges with hydrogens summed into heavy atoms:
               1
     1  C   -0.244385
     6  Bq   0.152698
     7  Bq   0.027111
     8  Bq   0.040339
     9  Bq   0.000000
    10  C   -0.338144
    15  Bq  -0.148888
    16  Bq   0.000000
    17  Bq  -0.059336
    18  Bq   0.570605
 Electronic spatial extent (au):  <R**2>=            629.5799
 Charge=             -0.0000 electrons
 Dipole moment (field-independent basis, Debye):
    X=             -0.0039    Y=             -0.0105    Z=             -0.0022  Tot=              0.0114

 Test job not archived.
 1\1\GINC-CHIMERA-NODE25\SP\RM05\Gen\C2H8\CONNORNM\05-Dec-2018\0\\#T M0
 5/Gen test Massage Symmetry=None SCF=(tight,maxcyc=60)\\M05 opt\\0,1\C
 ,0,0.,0.,0.\H,0,1.070478,0.,-0.28295373\H,0,-0.27770848,0.99695214,0.3
 9363739\H,0,-0.61702139,-0.2303552,-0.89006013\H,0,-0.17574813,-0.7665
 9693,0.77937648\Bq,0,-0.70835099,0.,0.18723463\Bq,0,0.18376377,-0.6596
 9785,-0.26047563\Bq,0,0.4082921,0.15242942,0.58896585\Bq,0,0.11629511,
 0.50726844,-0.51572485\C,0,0.,0.,3.95066522\H,0,0.84811354,-0.45348531
 ,4.49933675\H,0,-0.23198388,-0.61268881,3.05803884\H,0,-0.88760213,0.0
 4051837,4.61135174\H,0,0.27147247,1.02565574,3.63393355\Bq,0,-0.561209
 17,0.30007788,3.58760122\Bq,0,0.15350714,0.40542517,4.54132919\Bq,0,0.
 58733935,-0.0268116,3.51347926\Bq,0,-0.17963731,-0.67869145,4.16025121
 \\Version=AS64L-G09RevD.01\HF=-89.850899\RMSD=8.608e-09\Dipole=-0.0015
 4,-0.0041266,-0.0008672\Quadrupole=0.0020038,-0.0033394,0.0013356,0.00
 04706,-0.0069316,-0.0159512\PG=Unknown\\@


 IT IS A CAPITAL MISTAKE TO THEORIZE BEFORE ONE HAS
 DATA.  INSENSIBLY ONE BEGINS TO TWIST FACTS TO SUIT
 THEORIES RATHER THAN THEORIES TO SUIT FACTS.

                                         -- SHERLOCK HOLMES
 Job cpu time:       0 days  0 hours 17 minutes 31.4 seconds.
 File lengths (MBytes):  RWF=     41 Int=      0 D2E=      0 Chk=      4 Scr=      1
 Normal termination of Gaussian 09 at Wed Dec  5 22:06:11 2018.
