 Entering Gaussian System, Link 0=/data/szalewicgrp/connornm/opt/Gaussian/g09-M05-par/g09/g09
 AtFile(1): aug-cc-pVTZ.gbs
 Initial command:
 /data/szalewicgrp/connornm/opt/Gaussian/g09-M05-par/g09/l1.exe "/scratch/local/Gau-26050.inp" -scrdir="/scratch/local/"
 Entering Link 1 = /data/szalewicgrp/connornm/opt/Gaussian/g09-M05-par/g09/l1.exe PID=     26051.
  
 Copyright (c) 1988,1990,1992,1993,1995,1998,2003,2009,2013,
            Gaussian, Inc.  All Rights Reserved.
  
 This is part of the Gaussian(R) 09 program.  It is based on
 the Gaussian(R) 03 system (copyright 2003, Gaussian, Inc.),
 the Gaussian(R) 98 system (copyright 1998, Gaussian, Inc.),
 the Gaussian(R) 94 system (copyright 1995, Gaussian, Inc.),
 the Gaussian 92(TM) system (copyright 1992, Gaussian, Inc.),
 the Gaussian 90(TM) system (copyright 1990, Gaussian, Inc.),
 the Gaussian 88(TM) system (copyright 1988, Gaussian, Inc.),
 the Gaussian 86(TM) system (copyright 1986, Carnegie Mellon
 University), and the Gaussian 82(TM) system (copyright 1983,
 Carnegie Mellon University). Gaussian is a federally registered
 trademark of Gaussian, Inc.
  
 This software contains proprietary and confidential information,
 including trade secrets, belonging to Gaussian, Inc.
  
 This software is provided under written license and may be
 used, copied, transmitted, or stored only in accord with that
 written license.
  
 The following legend is applicable only to US Government
 contracts under FAR:
  
                    RESTRICTED RIGHTS LEGEND
  
 Use, reproduction and disclosure by the US Government is
 subject to restrictions as set forth in subparagraphs (a)
 and (c) of the Commercial Computer Software - Restricted
 Rights clause in FAR 52.227-19.
  
 Gaussian, Inc.
 340 Quinnipiac St., Bldg. 40, Wallingford CT 06492
  
  
 ---------------------------------------------------------------
 Warning -- This program may not be used in any manner that
 competes with the business of Gaussian, Inc. or will provide
 assistance to any competitor of Gaussian, Inc.  The licensee
 of this program is prohibited from giving any competitor of
 Gaussian, Inc. access to this program.  By using this program,
 the user acknowledges that Gaussian, Inc. is engaged in the
 business of creating and licensing software in the field of
 computational chemistry and represents and warrants to the
 licensee that it is not a competitor of Gaussian, Inc. and that
 it will not use this program in any manner prohibited above.
 ---------------------------------------------------------------
  

 Cite this work as:
 Gaussian 09, Revision D.01,
 M. J. Frisch, G. W. Trucks, H. B. Schlegel, G. E. Scuseria, 
 M. A. Robb, J. R. Cheeseman, G. Scalmani, V. Barone, B. Mennucci, 
 G. A. Petersson, H. Nakatsuji, M. Caricato, X. Li, H. P. Hratchian, 
 A. F. Izmaylov, J. Bloino, G. Zheng, J. L. Sonnenberg, M. Hada, 
 M. Ehara, K. Toyota, R. Fukuda, J. Hasegawa, M. Ishida, T. Nakajima, 
 Y. Honda, O. Kitao, H. Nakai, T. Vreven, J. A. Montgomery, Jr., 
 J. E. Peralta, F. Ogliaro, M. Bearpark, J. J. Heyd, E. Brothers, 
 K. N. Kudin, V. N. Staroverov, T. Keith, R. Kobayashi, J. Normand, 
 K. Raghavachari, A. Rendell, J. C. Burant, S. S. Iyengar, J. Tomasi, 
 M. Cossi, N. Rega, J. M. Millam, M. Klene, J. E. Knox, J. B. Cross, 
 V. Bakken, C. Adamo, J. Jaramillo, R. Gomperts, R. E. Stratmann, 
 O. Yazyev, A. J. Austin, R. Cammi, C. Pomelli, J. W. Ochterski, 
 R. L. Martin, K. Morokuma, V. G. Zakrzewski, G. A. Voth, 
 P. Salvador, J. J. Dannenberg, S. Dapprich, A. D. Daniels, 
 O. Farkas, J. B. Foresman, J. V. Ortiz, J. Cioslowski, 
 and D. J. Fox, Gaussian, Inc., Wallingford CT, 2013.
 
 ******************************************
 Gaussian 09:  AS64L-G09RevD.01 24-Apr-2013
                 5-Dec-2018 
 ******************************************
 %Chk=CH400227
 %Mem=2GB
 %NProcShared=16
 Will use up to   16 processors via shared memory.
 -----------------------------------------------------------
 #T M05/Gen test Massage Symmetry=None SCF=(tight,maxcyc=60)
 -----------------------------------------------------------
 -------
 M05 opt
 -------
 Symbolic Z-matrix:
 Charge =  0 Multiplicity = 1
 6                     0.        0.        0. 
 1                     0.88863   0.       -0.66055 
 1                    -0.21814   1.03568   0.32521 
 1                    -0.87033  -0.40451  -0.55217 
 1                     0.19984  -0.63118   0.88751 
 0                    -0.58802   0.        0.4371 
 0                     0.14435  -0.68533  -0.2152 
 0                     0.57591   0.26767   0.36538 
 0                    -0.13223   0.41766  -0.58728 
 6                     0.        0.        3.71656 
 1                    -0.95511  -0.08364   3.16271 
 1                     0.33744   1.05457   3.71325 
 1                    -0.14822  -0.33681   4.76087 
 1                     0.76589  -0.63412   3.22943 
 0                     0.63201   0.05535   4.08306 
 0                    -0.22329  -0.69782   3.71876 
 0                     0.09808   0.22287   3.02553 
 0                    -0.5068    0.4196    4.03891 
 
                    Distance matrix (angstroms):
                    1          2          3          4          5
     1  C    0.000000
     2  H    1.107243   0.000000
     3  H    1.107243   1.808119   0.000000
     4  H    1.107242   1.808119   1.808119   0.000000
     5  H    1.107242   1.808119   1.808119   1.808119   0.000000
     6  Bq   0.732679   1.839921   1.105427   1.105427   1.105427
     7  Bq   0.732679   1.105427   1.839921   1.105427   1.105427
     8  Bq   0.732679   1.105427   1.105427   1.839921   1.105427
     9  Bq   0.732679   1.105427   1.105427   1.105427   1.839921
    10  C    3.716564   4.466406   3.552675   4.375292   2.905491
    11  H    3.304834   4.245425   3.138054   3.729669   2.609639
    12  H    3.874815   4.532773   3.433340   4.667053   3.293247
    13  H    4.775071   5.529946   4.643673   5.362315   3.900096
    14  H    3.379040   3.943237   3.491565   4.126792   2.409362
    15  Bq   4.132055   4.750869   3.975580   4.894265   3.296915
    16  Bq   3.790247   4.571832   3.810672   4.329608   2.863469
    17  Bq   3.035313   3.776483   2.837672   3.759168   2.304537
    18  Bq   4.092149   4.920181   3.775502   4.678600   3.396291
                    6          7          8          9         10
     6  Bq   0.000000
     7  Bq   1.196459   0.000000
     8  Bq   1.196459   1.196459   0.000000
     9  Bq   1.196459   1.196459   1.196459   0.000000
    10  C    3.331768   3.993652   3.410830   4.326080   0.000000
    11  H    2.751490   3.602922   3.208187   3.871794   1.107243
    12  H    3.563954   4.300837   3.447363   4.372730   1.107243
    13  H    4.359117   4.996831   4.495566   5.401126   1.107242
    14  H    3.167381   3.500628   3.008671   4.059570   1.107243
    15  Bq   3.845074   4.388785   3.724163   4.746302   0.732679
    16  Bq   3.374802   3.951115   3.579950   4.449103   0.732679
    17  Bq   2.687080   3.365899   2.703098   3.625378   0.732679
    18  Bq   3.627081   4.443227   3.832774   4.641323   0.732679
                   11         12         13         14         15
    11  H    0.000000
    12  H    1.808119   0.000000
    13  H    1.808119   1.808119   0.000000
    14  H    1.808119   1.808119   1.808119   0.000000
    15  Bq   1.839921   1.105427   1.105427   1.105427   0.000000
    16  Bq   1.105427   1.839921   1.105427   1.105427   1.196459
    17  Bq   1.105427   1.105427   1.839921   1.105427   1.196459
    18  Bq   1.105427   1.105427   1.105427   1.839921   1.196459
                   16         17         18
    16  Bq   0.000000
    17  Bq   1.196459   0.000000
    18  Bq   1.196459   1.196459   0.000000
 Symmetry turned off by external request.
 Rotational constants (GHZ):     76.6916054      4.3081112      4.3081112
 Warning:  center   6 has no basis functions!
 Warning:  center   7 has no basis functions!
 Warning:  center   8 has no basis functions!
 Warning:  center   9 has no basis functions!
 Warning:  center  15 has no basis functions!
 Warning:  center  16 has no basis functions!
 Warning:  center  17 has no basis functions!
 Warning:  center  18 has no basis functions!
   276 basis functions,   360 primitive gaussians,   310 cartesian basis functions
    10 alpha electrons       10 beta electrons
       nuclear repulsion energy        40.6464114844 Hartrees.
 IMHF & INEx in M05                  614413                  385587
 NAtoms=   18 NActive=   18 NUniq=   18 SFac= 1.00D+00 NAtFMM=   60 NAOKFM=F Big=F
 ExpMin= 2.53D-02 ExpMax= 8.24D+03 ExpMxC= 2.81D+02 IAcc=3 IRadAn=         5 AccDes= 0.00D+00
 Harris functional with IExCor= 1009 and IRadAn=       5 diagonalized for initial guess.
 HarFok:  IExCor= 1009 AccDes= 0.00D+00 IRadAn=         5 IDoV= 1 UseB2=F ITyADJ=14
 ICtDFT=  3500011 ScaDFX=  1.000000  1.000000  1.000000  1.000000
 FoFCou: FMM=F IPFlag=           0 FMFlag=      100000 FMFlg1=           0
         NFxFlg=           0 DoJE=T BraDBF=F KetDBF=T FulRan=T
         wScrn=  0.000000 ICntrl=     500 IOpCl=  0 I1Cent=   200000004 NGrid=           0
         NMat0=    1 NMatS0=      1 NMatT0=    0 NMatD0=    1 NMtDS0=    0 NMtDT0=    0
 Symmetry not used in FoFCou.
 SCF Done:  E(RM05) =  -81.8227521196     A.U. after    9 cycles
            NFock=  9  Conv=0.12D-08     -V/T= 2.0126

 **********************************************************************

            Population analysis using the SCF density.

 **********************************************************************

 Alpha  occ. eigenvalues --  -10.74513 -10.74347  -0.83032  -0.82428  -0.49911
 Alpha  occ. eigenvalues --   -0.49017  -0.48857  -0.48547  -0.48399  -0.47480
 Alpha virt. eigenvalues --   -0.00468   0.01385   0.02317   0.02449   0.03954
 Alpha virt. eigenvalues --    0.04430   0.04642   0.05946   0.08512   0.08641
 Alpha virt. eigenvalues --    0.09146   0.09433   0.10607   0.10704   0.10977
 Alpha virt. eigenvalues --    0.12626   0.13658   0.14868   0.15411   0.16136
 Alpha virt. eigenvalues --    0.16563   0.17607   0.17771   0.20936   0.22894
 Alpha virt. eigenvalues --    0.25630   0.26455   0.26592   0.26817   0.27370
 Alpha virt. eigenvalues --    0.27843   0.28405   0.28963   0.29224   0.29868
 Alpha virt. eigenvalues --    0.31075   0.31614   0.32912   0.33524   0.34078
 Alpha virt. eigenvalues --    0.34342   0.34659   0.35535   0.35709   0.37143
 Alpha virt. eigenvalues --    0.37666   0.38155   0.39212   0.40464   0.40657
 Alpha virt. eigenvalues --    0.42611   0.42814   0.44277   0.45017   0.47263
 Alpha virt. eigenvalues --    0.47989   0.49691   0.52273   0.57912   0.60483
 Alpha virt. eigenvalues --    0.61366   0.64465   0.65951   0.68013   0.68675
 Alpha virt. eigenvalues --    0.69754   0.70494   0.71427   0.72804   0.74309
 Alpha virt. eigenvalues --    0.74567   0.75836   0.77043   0.78115   0.79037
 Alpha virt. eigenvalues --    0.79538   0.79892   0.82146   0.83809   0.85172
 Alpha virt. eigenvalues --    0.85496   0.86869   0.87020   0.87456   0.88288
 Alpha virt. eigenvalues --    0.89470   0.90206   0.90480   0.92589   0.93866
 Alpha virt. eigenvalues --    0.95382   0.95925   0.96862   0.97716   0.98132
 Alpha virt. eigenvalues --    1.00092   1.00137   1.00802   1.01722   1.03750
 Alpha virt. eigenvalues --    1.04700   1.06067   1.08227   1.08555   1.09926
 Alpha virt. eigenvalues --    1.10669   1.11927   1.12341   1.13240   1.16375
 Alpha virt. eigenvalues --    1.17119   1.19291   1.25476   1.26270   1.30431
 Alpha virt. eigenvalues --    1.32932   1.35066   1.37483   1.42793   1.43938
 Alpha virt. eigenvalues --    1.44627   1.44837   1.46210   1.46709   1.47369
 Alpha virt. eigenvalues --    1.47797   1.48405   1.50485   1.53108   1.54305
 Alpha virt. eigenvalues --    1.57515   1.58381   1.59557   1.60034   1.62735
 Alpha virt. eigenvalues --    1.64009   1.65153   1.66829   1.69319   1.70343
 Alpha virt. eigenvalues --    1.70876   1.71923   1.73598   1.75532   1.78657
 Alpha virt. eigenvalues --    1.80127   1.82981   1.84664   1.86904   1.94496
 Alpha virt. eigenvalues --    1.96107   1.96904   1.98426   1.99379   2.01336
 Alpha virt. eigenvalues --    2.02498   2.06478   2.06899   2.10333   2.14954
 Alpha virt. eigenvalues --    2.40581   2.44698   2.68762   2.70649   2.86781
 Alpha virt. eigenvalues --    2.88777   2.90830   2.91398   2.93660   2.96367
 Alpha virt. eigenvalues --    3.18736   3.20680   3.20910   3.22099   3.23131
 Alpha virt. eigenvalues --    3.23575   3.23957   3.24551   3.27452   3.28278
 Alpha virt. eigenvalues --    3.28898   3.29835   3.30426   3.32233   3.39612
 Alpha virt. eigenvalues --    3.43923   3.57373   3.58367   3.58989   3.59534
 Alpha virt. eigenvalues --    3.60592   3.63129   3.70670   3.71193   3.71286
 Alpha virt. eigenvalues --    3.71802   3.72857   3.73760   3.74575   3.75284
 Alpha virt. eigenvalues --    3.77176   3.78606   3.80642   3.81053   3.82603
 Alpha virt. eigenvalues --    3.84975   3.86321   3.87560   3.90181   3.94554
 Alpha virt. eigenvalues --    4.18177   4.19157   4.19946   4.21139   4.21545
 Alpha virt. eigenvalues --    4.23124   4.32408   4.33160   4.34038   4.37436
 Alpha virt. eigenvalues --    4.38728   4.39538   4.41069   4.42138   4.42511
 Alpha virt. eigenvalues --    4.44798   4.49333   4.50439   4.51751   4.52510
 Alpha virt. eigenvalues --    4.56743   4.59522   4.77094   4.77504   4.78541
 Alpha virt. eigenvalues --    4.78842   4.79712   4.80984   4.83152   4.86295
 Alpha virt. eigenvalues --    5.14178   5.14979   5.15460   5.15749   5.17080
 Alpha virt. eigenvalues --    5.20402   5.22896   5.25386   5.31773   5.33063
 Alpha virt. eigenvalues --    5.33217   5.34480   5.57409   5.58479   5.58728
 Alpha virt. eigenvalues --    5.59257   5.60188   5.65594   6.04460   6.05933
 Alpha virt. eigenvalues --    6.06564   6.08505   6.09701   6.11575  16.73864
 Alpha virt. eigenvalues --   16.81383
          Condensed to atoms (all electrons):
 Mulliken charges:
               1
     1  C   -1.860705
     2  H    0.426491
     3  H    0.428535
     4  H    0.434242
     5  H    0.567682
     6  Bq   0.000000
     7  Bq   0.000000
     8  Bq   0.000000
     9  Bq   0.000000
    10  C   -1.860725
    11  H    0.485537
    12  H    0.490668
    13  H    0.423899
    14  H    0.464377
    15  Bq   0.000000
    16  Bq   0.000000
    17  Bq   0.000000
    18  Bq   0.000000
 Sum of Mulliken charges =  -0.00000
 Mulliken charges with hydrogens summed into heavy atoms:
               1
     1  C   -1.860705
     6  Bq   0.567682
     7  Bq   0.000000
     8  Bq   0.855026
     9  Bq   0.434242
    10  C   -1.860725
    15  Bq   0.000000
    16  Bq   0.949914
    17  Bq   0.490668
    18  Bq   0.423899
 Electronic spatial extent (au):  <R**2>=            566.3917
 Charge=             -0.0000 electrons
 Dipole moment (field-independent basis, Debye):
    X=             -0.0025    Y=              0.0053    Z=              0.0346  Tot=              0.0351

 Test job not archived.
 1\1\GINC-CHIMERA-NODE24\SP\RM05\Gen\C2H8\CONNORNM\05-Dec-2018\0\\#T M0
 5/Gen test Massage Symmetry=None SCF=(tight,maxcyc=60)\\M05 opt\\0,1\C
 ,0,0.,0.,0.\H,0,0.88862828,0.,-0.66054958\H,0,-0.21813829,1.03568302,0
 .32521121\H,0,-0.87032676,-0.40450797,-0.55216898\H,0,0.19983678,-0.63
 117504,0.88750734\Bq,0,-0.58801836,0.,0.43709534\Bq,0,0.14434531,-0.68
 532664,-0.21519703\Bq,0,0.57590799,0.26766886,0.36537831\Bq,0,-0.13223
 493,0.41765778,-0.58727663\C,0,0.,0.,3.71656409\H,0,-0.95510745,-0.083
 64268,3.16270524\H,0,0.3374399,1.05456592,3.71324899\H,0,-0.14821951,-
 0.33680667,4.76087161\H,0,0.76588706,-0.63411658,3.2294305\Bq,0,0.6320
 0861,0.05534759,4.08306061\Bq,0,-0.22328893,-0.69782174,3.71875773\Bq,
 0,0.09807903,0.22286991,3.02553048\Bq,0,-0.5067987,0.41960424,4.038907
 53\\Version=AS64L-G09RevD.01\HF=-81.8227521\RMSD=1.155e-09\Dipole=-0.0
 009949,0.0021031,0.0136261\Quadrupole=0.0149871,0.0153613,-0.0303484,0
 .0010846,-0.0066653,0.016554\PG=Unknown\\@


 KNIGHT- SIRE, I'VE JUST RETURNED FROM THE FRONT
 KING-   HOW GOES THE BATTLE                    
 KNIGHT- THE SITUATION IS QUITE FLUID           
 KING-   WHAT DOES *THAT* MEAN                  
 KNIGHT- WE'RE UP THE CREEK                     
                THE WIZARD OF ID                
 Job cpu time:       0 days  0 hours 15 minutes  8.1 seconds.
 File lengths (MBytes):  RWF=     41 Int=      0 D2E=      0 Chk=      4 Scr=      1
 Normal termination of Gaussian 09 at Wed Dec  5 21:31:22 2018.
