 Entering Gaussian System, Link 0=/data/szalewicgrp/connornm/opt/Gaussian/g09-M05-par/g09/g09
 AtFile(1): aug-cc-pVTZ.gbs
 Initial command:
 /data/szalewicgrp/connornm/opt/Gaussian/g09-M05-par/g09/l1.exe "/scratch/local/Gau-16157.inp" -scrdir="/scratch/local/"
 Entering Link 1 = /data/szalewicgrp/connornm/opt/Gaussian/g09-M05-par/g09/l1.exe PID=     16158.
  
 Copyright (c) 1988,1990,1992,1993,1995,1998,2003,2009,2013,
            Gaussian, Inc.  All Rights Reserved.
  
 This is part of the Gaussian(R) 09 program.  It is based on
 the Gaussian(R) 03 system (copyright 2003, Gaussian, Inc.),
 the Gaussian(R) 98 system (copyright 1998, Gaussian, Inc.),
 the Gaussian(R) 94 system (copyright 1995, Gaussian, Inc.),
 the Gaussian 92(TM) system (copyright 1992, Gaussian, Inc.),
 the Gaussian 90(TM) system (copyright 1990, Gaussian, Inc.),
 the Gaussian 88(TM) system (copyright 1988, Gaussian, Inc.),
 the Gaussian 86(TM) system (copyright 1986, Carnegie Mellon
 University), and the Gaussian 82(TM) system (copyright 1983,
 Carnegie Mellon University). Gaussian is a federally registered
 trademark of Gaussian, Inc.
  
 This software contains proprietary and confidential information,
 including trade secrets, belonging to Gaussian, Inc.
  
 This software is provided under written license and may be
 used, copied, transmitted, or stored only in accord with that
 written license.
  
 The following legend is applicable only to US Government
 contracts under FAR:
  
                    RESTRICTED RIGHTS LEGEND
  
 Use, reproduction and disclosure by the US Government is
 subject to restrictions as set forth in subparagraphs (a)
 and (c) of the Commercial Computer Software - Restricted
 Rights clause in FAR 52.227-19.
  
 Gaussian, Inc.
 340 Quinnipiac St., Bldg. 40, Wallingford CT 06492
  
  
 ---------------------------------------------------------------
 Warning -- This program may not be used in any manner that
 competes with the business of Gaussian, Inc. or will provide
 assistance to any competitor of Gaussian, Inc.  The licensee
 of this program is prohibited from giving any competitor of
 Gaussian, Inc. access to this program.  By using this program,
 the user acknowledges that Gaussian, Inc. is engaged in the
 business of creating and licensing software in the field of
 computational chemistry and represents and warrants to the
 licensee that it is not a competitor of Gaussian, Inc. and that
 it will not use this program in any manner prohibited above.
 ---------------------------------------------------------------
  

 Cite this work as:
 Gaussian 09, Revision D.01,
 M. J. Frisch, G. W. Trucks, H. B. Schlegel, G. E. Scuseria, 
 M. A. Robb, J. R. Cheeseman, G. Scalmani, V. Barone, B. Mennucci, 
 G. A. Petersson, H. Nakatsuji, M. Caricato, X. Li, H. P. Hratchian, 
 A. F. Izmaylov, J. Bloino, G. Zheng, J. L. Sonnenberg, M. Hada, 
 M. Ehara, K. Toyota, R. Fukuda, J. Hasegawa, M. Ishida, T. Nakajima, 
 Y. Honda, O. Kitao, H. Nakai, T. Vreven, J. A. Montgomery, Jr., 
 J. E. Peralta, F. Ogliaro, M. Bearpark, J. J. Heyd, E. Brothers, 
 K. N. Kudin, V. N. Staroverov, T. Keith, R. Kobayashi, J. Normand, 
 K. Raghavachari, A. Rendell, J. C. Burant, S. S. Iyengar, J. Tomasi, 
 M. Cossi, N. Rega, J. M. Millam, M. Klene, J. E. Knox, J. B. Cross, 
 V. Bakken, C. Adamo, J. Jaramillo, R. Gomperts, R. E. Stratmann, 
 O. Yazyev, A. J. Austin, R. Cammi, C. Pomelli, J. W. Ochterski, 
 R. L. Martin, K. Morokuma, V. G. Zakrzewski, G. A. Voth, 
 P. Salvador, J. J. Dannenberg, S. Dapprich, A. D. Daniels, 
 O. Farkas, J. B. Foresman, J. V. Ortiz, J. Cioslowski, 
 and D. J. Fox, Gaussian, Inc., Wallingford CT, 2013.
 
 ******************************************
 Gaussian 09:  AS64L-G09RevD.01 24-Apr-2013
                 8-Dec-2018 
 ******************************************
 %Chk=CH400019
 %Mem=2GB
 %NProcShared=16
 Will use up to   16 processors via shared memory.
 ---------------------------------------------
 #T M05/Gen test Massage SCF=(tight,maxcyc=40)
 ---------------------------------------------
 -------
 M05 opt
 -------
 Symbolic Z-matrix:
 Charge =  0 Multiplicity = 1
 6                     0.        0.        0. 
 1                     0.60822   0.        0.92523 
 1                     0.6358    0.28768  -0.85964 
 1                    -0.41382  -1.01289  -0.16965 
 1                    -0.8302    0.72521   0.10406 
 0                    -0.40247   0.       -0.61224 
 0                    -0.42072  -0.19036   0.56884 
 0                     0.27383   0.67025   0.11226 
 0                     0.54935  -0.47988  -0.06886 
 6                     0.        0.        2.49035 
 1                     0.41318   0.78035   1.82229 
 1                     0.22775  -1.00049   2.07426 
 1                     0.45628   0.09461   3.49477 
 1                    -1.09721   0.12553   2.5701 
 0                    -0.27341  -0.51637   2.93242 
 0                    -0.1507    0.66204   2.76568 
 0                    -0.30193  -0.0626    1.82572 
 0                     0.72604  -0.08307   2.43759 
 
                    Distance matrix (angstroms):
                    1          2          3          4          5
     1  C    0.000000
     2  H    1.107243   0.000000
     3  H    1.107243   1.808119   0.000000
     4  H    1.107242   1.808119   1.808119   0.000000
     5  H    1.107242   1.808119   1.808119   1.808119   0.000000
     6  Bq   0.732679   1.839921   1.105427   1.105427   1.105427
     7  Bq   0.732679   1.105427   1.839921   1.105427   1.105427
     8  Bq   0.732679   1.105427   1.105427   1.839921   1.105427
     9  Bq   0.732679   1.105427   1.105427   1.105427   1.839921
    10  C    2.490352   1.679145   3.421908   2.876251   2.628604
    11  H    2.024943   1.204862   2.735875   2.804904   2.121635
    12  H    2.314179   1.570355   3.230123   2.333863   2.824715
    13  H    3.525695   2.575758   4.362380   3.925758   3.680974
    14  H    2.797323   2.372723   3.846129   3.044542   2.551911
    15  Bq   2.990065   2.252269   3.981571   3.144695   3.138660
    16  Bq   2.847810   2.097981   3.728501   3.389813   2.747718
    17  Bq   1.851573   1.281856   2.865865   2.212932   1.965663
    18  Bq   2.544770   1.519207   3.319231   2.993584   2.918995
                    6          7          8          9         10
     6  Bq   0.000000
     7  Bq   1.196459   0.000000
     8  Bq   1.196459   1.196459   0.000000
     9  Bq   1.196459   1.196459   1.196459   0.000000
    10  C    3.128587   1.976224   2.485868   2.661133   0.000000
    11  H    2.683496   1.791317   1.719223   2.276655   1.107243
    12  H    2.935210   1.828423   2.577393   2.228773   1.107242
    13  H    4.196890   3.067799   3.435984   3.610832   1.107243
    14  H    3.259706   2.135992   2.866605   3.168874   1.107243
    15  Bq   3.584400   2.390505   3.108191   3.112225   0.732679
    16  Bq   3.451385   2.371843   2.687184   3.135075   0.732679
    17  Bq   2.440833   1.268930   1.950514   2.118540   0.732679
    18  Bq   3.252977   2.195174   2.485781   2.543803   0.732679
                   11         12         13         14         15
    11  H    0.000000
    12  H    1.808119   0.000000
    13  H    1.808119   1.808119   0.000000
    14  H    1.808119   1.808119   1.808119   0.000000
    15  Bq   1.839921   1.105427   1.105427   1.105427   0.000000
    16  Bq   1.105427   1.839921   1.105427   1.105427   1.196459
    17  Bq   1.105427   1.105427   1.839921   1.105427   1.196459
    18  Bq   1.105427   1.105427   1.105427   1.839921   1.196459
                   16         17         18
    16  Bq   0.000000
    17  Bq   1.196459   0.000000
    18  Bq   1.196459   1.196459   0.000000
 Symmetry turned off by external request.
 Symmetry turned off:
 Cannot cope with ghost atoms or with translation vectors.
 Framework group  C1[X(C2H8)]
 NUMDOF-- NAT=    10 NAtoms=    18
 Deg. of freedom     0
 Rotational constants (GHZ):     76.6916053      8.9762737      8.9762736
 Warning:  center   6 has no basis functions!
 Warning:  center   7 has no basis functions!
 Warning:  center   8 has no basis functions!
 Warning:  center   9 has no basis functions!
 Warning:  center  15 has no basis functions!
 Warning:  center  16 has no basis functions!
 Warning:  center  17 has no basis functions!
 Warning:  center  18 has no basis functions!
   276 basis functions,   360 primitive gaussians,   310 cartesian basis functions
    10 alpha electrons       10 beta electrons
       nuclear repulsion energy        47.5407780356 Hartrees.
 IMHF & INEx in M05                  614413                  385587
 NAtoms=   18 NActive=   18 NUniq=   18 SFac= 1.00D+00 NAtFMM=   60 NAOKFM=F Big=F
 ExpMin= 2.53D-02 ExpMax= 8.24D+03 ExpMxC= 2.81D+02 IAcc=3 IRadAn=         5 AccDes= 0.00D+00
 Harris functional with IExCor= 1009 and IRadAn=       5 diagonalized for initial guess.
 HarFok:  IExCor= 1009 AccDes= 0.00D+00 IRadAn=         5 IDoV= 1 UseB2=F ITyADJ=14
 ICtDFT=  3500011 ScaDFX=  1.000000  1.000000  1.000000  1.000000
 FoFCou: FMM=F IPFlag=           0 FMFlag=      100000 FMFlg1=           0
         NFxFlg=           0 DoJE=T BraDBF=F KetDBF=T FulRan=T
         wScrn=  0.000000 ICntrl=     500 IOpCl=  0 I1Cent=   200000004 NGrid=           0
         NMat0=    1 NMatS0=      1 NMatT0=    0 NMatD0=    1 NMtDS0=    0 NMtDT0=    0
 Symmetry not used in FoFCou.
 SCF Done:  E(RM05) =  -81.7338970717     A.U. after   10 cycles
            NFock= 10  Conv=0.18D-08     -V/T= 2.0072

 **********************************************************************

            Population analysis using the SCF density.

 **********************************************************************

 Alpha  occ. eigenvalues --  -10.74219 -10.71742  -0.87902  -0.79538  -0.56943
 Alpha  occ. eigenvalues --   -0.51446  -0.50116  -0.46771  -0.46288  -0.38407
 Alpha virt. eigenvalues --   -0.00450   0.01829   0.02306   0.02385   0.04126
 Alpha virt. eigenvalues --    0.04661   0.05020   0.05481   0.07596   0.09201
 Alpha virt. eigenvalues --    0.09658   0.10533   0.10770   0.10930   0.11089
 Alpha virt. eigenvalues --    0.13551   0.14009   0.15211   0.15542   0.16153
 Alpha virt. eigenvalues --    0.17838   0.18964   0.23443   0.24555   0.24753
 Alpha virt. eigenvalues --    0.25585   0.25921   0.26824   0.27423   0.29235
 Alpha virt. eigenvalues --    0.29760   0.30315   0.30514   0.31385   0.31884
 Alpha virt. eigenvalues --    0.33210   0.33746   0.33974   0.34831   0.34942
 Alpha virt. eigenvalues --    0.35517   0.36862   0.37012   0.38678   0.39107
 Alpha virt. eigenvalues --    0.39960   0.41317   0.42404   0.43165   0.44327
 Alpha virt. eigenvalues --    0.44803   0.45796   0.47082   0.48588   0.48825
 Alpha virt. eigenvalues --    0.49260   0.53797   0.56451   0.60274   0.63020
 Alpha virt. eigenvalues --    0.63236   0.65334   0.67500   0.69722   0.71132
 Alpha virt. eigenvalues --    0.71683   0.72283   0.73465   0.74100   0.75530
 Alpha virt. eigenvalues --    0.75748   0.77273   0.78326   0.79616   0.80121
 Alpha virt. eigenvalues --    0.81117   0.83640   0.84271   0.84317   0.86480
 Alpha virt. eigenvalues --    0.87288   0.87955   0.89367   0.91404   0.92461
 Alpha virt. eigenvalues --    0.93658   0.95829   0.96327   0.98653   0.99767
 Alpha virt. eigenvalues --    1.00341   1.01635   1.02775   1.03164   1.04608
 Alpha virt. eigenvalues --    1.06343   1.07310   1.08137   1.09321   1.10732
 Alpha virt. eigenvalues --    1.11542   1.13979   1.15033   1.17028   1.19095
 Alpha virt. eigenvalues --    1.22856   1.25101   1.25926   1.27261   1.29543
 Alpha virt. eigenvalues --    1.33695   1.34894   1.35609   1.38745   1.41063
 Alpha virt. eigenvalues --    1.44524   1.45116   1.45763   1.46177   1.46707
 Alpha virt. eigenvalues --    1.48615   1.48927   1.51029   1.51817   1.54759
 Alpha virt. eigenvalues --    1.55729   1.57620   1.58673   1.60887   1.63332
 Alpha virt. eigenvalues --    1.64845   1.65145   1.68076   1.68467   1.71246
 Alpha virt. eigenvalues --    1.72410   1.73605   1.75526   1.76199   1.78537
 Alpha virt. eigenvalues --    1.82154   1.87373   1.88930   1.89124   1.91679
 Alpha virt. eigenvalues --    1.92602   1.94886   1.95541   1.98677   1.99905
 Alpha virt. eigenvalues --    2.02458   2.04059   2.04806   2.09040   2.12344
 Alpha virt. eigenvalues --    2.14479   2.16799   2.23651   2.24805   2.28041
 Alpha virt. eigenvalues --    2.49788   2.60814   2.86484   2.92381   2.94682
 Alpha virt. eigenvalues --    2.99111   3.01181   3.03113   3.09767   3.13837
 Alpha virt. eigenvalues --    3.22482   3.25175   3.25885   3.26940   3.28923
 Alpha virt. eigenvalues --    3.30004   3.31816   3.35571   3.37067   3.39796
 Alpha virt. eigenvalues --    3.40669   3.44156   3.47029   3.51488   3.57057
 Alpha virt. eigenvalues --    3.57856   3.59032   3.60597   3.61512   3.63030
 Alpha virt. eigenvalues --    3.65543   3.67550   3.70754   3.73337   3.74480
 Alpha virt. eigenvalues --    3.77391   3.79088   3.83250   3.84417   3.85703
 Alpha virt. eigenvalues --    3.89821   3.91663   3.92134   3.93836   3.95558
 Alpha virt. eigenvalues --    4.01271   4.02092   4.14500   4.14894   4.19264
 Alpha virt. eigenvalues --    4.23495   4.25463   4.28635   4.31860   4.34980
 Alpha virt. eigenvalues --    4.36313   4.39522   4.41711   4.44449   4.46072
 Alpha virt. eigenvalues --    4.47082   4.50705   4.52086   4.57161   4.58598
 Alpha virt. eigenvalues --    4.62358   4.64497   4.68808   4.74998   4.76311
 Alpha virt. eigenvalues --    4.83411   4.86195   4.86717   4.92314   4.94975
 Alpha virt. eigenvalues --    4.98675   5.01165   5.03343   5.11095   5.12864
 Alpha virt. eigenvalues --    5.17027   5.21332   5.23653   5.28464   5.32714
 Alpha virt. eigenvalues --    5.34613   5.41360   5.42355   5.45161   5.52214
 Alpha virt. eigenvalues --    5.54837   5.61931   5.67088   5.69554   5.74228
 Alpha virt. eigenvalues --    5.87761   5.98843   6.10879   6.13075   6.16478
 Alpha virt. eigenvalues --    6.18505   6.24222   6.27657   6.45733  17.45790
 Alpha virt. eigenvalues --   18.26380
          Condensed to atoms (all electrons):
 Mulliken charges:
               1
     1  C   -2.011177
     2  H    0.735096
     3  H    0.372834
     4  H    0.450968
     5  H    0.441304
     6  Bq   0.000000
     7  Bq   0.000000
     8  Bq   0.000000
     9  Bq   0.000000
    10  C   -2.130686
    11  H    0.673970
    12  H    0.570198
    13  H    0.440810
    14  H    0.456683
    15  Bq   0.000000
    16  Bq   0.000000
    17  Bq   0.000000
    18  Bq   0.000000
 Sum of Mulliken charges =  -0.00000
 Mulliken charges with hydrogens summed into heavy atoms:
               1
     1  C   -2.011177
     6  Bq   0.892272
     7  Bq   0.000000
     8  Bq   1.107930
     9  Bq   0.000000
    10  C   -2.130686
    15  Bq   0.456683
    16  Bq   0.673970
    17  Bq   0.570198
    18  Bq   0.440810
 Electronic spatial extent (au):  <R**2>=            294.9469
 Charge=             -0.0000 electrons
 Dipole moment (field-independent basis, Debye):
    X=              0.0602    Y=              0.0283    Z=              0.4363  Tot=              0.4413

 Test job not archived.
 1\1\GINC-CHIMERA-NODE14\SP\RM05\Gen\C2H8\CONNORNM\08-Dec-2018\0\\#T M0
 5/Gen test Massage SCF=(tight,maxcyc=40)\\M05 opt\\0,1\C,0,0.,0.,0.\H,
 0,0.6082186,0.,0.925233\H,0,0.63580123,0.2876809,-0.85964089\H,0,-0.41
 382463,-1.01289381,-0.1696504\H,0,-0.83019519,0.72521291,0.1040583\Bq,
 0,-0.40246717,0.,-0.61224024\Bq,0,-0.420719,-0.19036267,0.56883699\Bq,
 0,0.27383383,0.67024669,0.11226016\Bq,0,0.54935234,-0.47988402,-0.0688
 569\C,0,0.,0.,2.4903522\H,0,0.41318316,0.78035372,1.82228506\H,0,0.227
 74774,-1.00049341,2.07426344\H,0,0.45627852,0.09460675,3.49476518\H,0,
 -1.09720942,0.12553294,2.57009514\Bq,0,-0.27340936,-0.5163715,2.932422
 04\Bq,0,-0.15070402,0.66204116,2.76568424\Bq,0,-0.30192619,-0.06260268
 ,1.8257174\Bq,0,0.72603956,-0.08306699,2.43758514\\Version=AS64L-G09Re
 vD.01\HF=-81.7338971\RMSD=1.787e-09\Dipole=0.0236786,0.011128,0.171649
 7\Quadrupole=0.2705812,0.2912677,-0.5618489,-0.0029948,0.0111274,0.000
 3602\PG=C01 [X(C2H8)]\\@


 FOR THE NATURE OF THE CHEMICAL BOND
 IS THE PROBLEM AT THE HEART OF ALL CHEMISTRY.

                     -- BRYCE CRAWFORD, JR., 1953
 Job cpu time:       0 days  0 hours 18 minutes 50.9 seconds.
 File lengths (MBytes):  RWF=     41 Int=      0 D2E=      0 Chk=      4 Scr=      1
 Normal termination of Gaussian 09 at Sat Dec  8 13:48:52 2018.
