 Entering Gaussian System, Link 0=/data/szalewicgrp/connornm/opt/Gaussian/g09-M05-par/g09/g09
 AtFile(1): aug-cc-pVTZ.gbs
 Initial command:
 /data/szalewicgrp/connornm/opt/Gaussian/g09-M05-par/g09/l1.exe "/scratch/local/Gau-9154.inp" -scrdir="/scratch/local/"
 Entering Link 1 = /data/szalewicgrp/connornm/opt/Gaussian/g09-M05-par/g09/l1.exe PID=      9155.
  
 Copyright (c) 1988,1990,1992,1993,1995,1998,2003,2009,2013,
            Gaussian, Inc.  All Rights Reserved.
  
 This is part of the Gaussian(R) 09 program.  It is based on
 the Gaussian(R) 03 system (copyright 2003, Gaussian, Inc.),
 the Gaussian(R) 98 system (copyright 1998, Gaussian, Inc.),
 the Gaussian(R) 94 system (copyright 1995, Gaussian, Inc.),
 the Gaussian 92(TM) system (copyright 1992, Gaussian, Inc.),
 the Gaussian 90(TM) system (copyright 1990, Gaussian, Inc.),
 the Gaussian 88(TM) system (copyright 1988, Gaussian, Inc.),
 the Gaussian 86(TM) system (copyright 1986, Carnegie Mellon
 University), and the Gaussian 82(TM) system (copyright 1983,
 Carnegie Mellon University). Gaussian is a federally registered
 trademark of Gaussian, Inc.
  
 This software contains proprietary and confidential information,
 including trade secrets, belonging to Gaussian, Inc.
  
 This software is provided under written license and may be
 used, copied, transmitted, or stored only in accord with that
 written license.
  
 The following legend is applicable only to US Government
 contracts under FAR:
  
                    RESTRICTED RIGHTS LEGEND
  
 Use, reproduction and disclosure by the US Government is
 subject to restrictions as set forth in subparagraphs (a)
 and (c) of the Commercial Computer Software - Restricted
 Rights clause in FAR 52.227-19.
  
 Gaussian, Inc.
 340 Quinnipiac St., Bldg. 40, Wallingford CT 06492
  
  
 ---------------------------------------------------------------
 Warning -- This program may not be used in any manner that
 competes with the business of Gaussian, Inc. or will provide
 assistance to any competitor of Gaussian, Inc.  The licensee
 of this program is prohibited from giving any competitor of
 Gaussian, Inc. access to this program.  By using this program,
 the user acknowledges that Gaussian, Inc. is engaged in the
 business of creating and licensing software in the field of
 computational chemistry and represents and warrants to the
 licensee that it is not a competitor of Gaussian, Inc. and that
 it will not use this program in any manner prohibited above.
 ---------------------------------------------------------------
  

 Cite this work as:
 Gaussian 09, Revision D.01,
 M. J. Frisch, G. W. Trucks, H. B. Schlegel, G. E. Scuseria, 
 M. A. Robb, J. R. Cheeseman, G. Scalmani, V. Barone, B. Mennucci, 
 G. A. Petersson, H. Nakatsuji, M. Caricato, X. Li, H. P. Hratchian, 
 A. F. Izmaylov, J. Bloino, G. Zheng, J. L. Sonnenberg, M. Hada, 
 M. Ehara, K. Toyota, R. Fukuda, J. Hasegawa, M. Ishida, T. Nakajima, 
 Y. Honda, O. Kitao, H. Nakai, T. Vreven, J. A. Montgomery, Jr., 
 J. E. Peralta, F. Ogliaro, M. Bearpark, J. J. Heyd, E. Brothers, 
 K. N. Kudin, V. N. Staroverov, T. Keith, R. Kobayashi, J. Normand, 
 K. Raghavachari, A. Rendell, J. C. Burant, S. S. Iyengar, J. Tomasi, 
 M. Cossi, N. Rega, J. M. Millam, M. Klene, J. E. Knox, J. B. Cross, 
 V. Bakken, C. Adamo, J. Jaramillo, R. Gomperts, R. E. Stratmann, 
 O. Yazyev, A. J. Austin, R. Cammi, C. Pomelli, J. W. Ochterski, 
 R. L. Martin, K. Morokuma, V. G. Zakrzewski, G. A. Voth, 
 P. Salvador, J. J. Dannenberg, S. Dapprich, A. D. Daniels, 
 O. Farkas, J. B. Foresman, J. V. Ortiz, J. Cioslowski, 
 and D. J. Fox, Gaussian, Inc., Wallingford CT, 2013.
 
 ******************************************
 Gaussian 09:  AS64L-G09RevD.01 24-Apr-2013
                 8-Dec-2018 
 ******************************************
 %Chk=CH400187
 %Mem=2GB
 %NProcShared=16
 Will use up to   16 processors via shared memory.
 ---------------------------------------------
 #T M05/Gen test Massage SCF=(tight,maxcyc=40)
 ---------------------------------------------
 -------
 M05 opt
 -------
 Symbolic Z-matrix:
 Charge =  0 Multiplicity = 1
 6                     0.        0.        0. 
 1                     0.71021   0.        0.84947 
 1                    -0.89643   0.59192   0.26839 
 1                     0.48639   0.44872  -0.88773 
 1                    -0.30017  -1.04064  -0.23012 
 0                    -0.46995   0.       -0.5621 
 0                     0.59318  -0.39168  -0.1776 
 0                    -0.32185  -0.29692   0.58742 
 0                     0.19862   0.68861   0.15228 
 6                     0.        0.        2.6113 
 1                     0.24946   0.25386   3.65978 
 1                    -0.60708   0.81352   2.169 
 1                     0.93377  -0.12215   2.02894 
 1                    -0.57615  -0.94523   2.58747 
 0                    -0.16507  -0.16798   1.9175 
 0                     0.40171  -0.53832   2.90397 
 0                    -0.61789   0.08083   2.99665 
 0                     0.38125   0.62547   2.62706 
 
                    Distance matrix (angstroms):
                    1          2          3          4          5
     1  C    0.000000
     2  H    1.107242   0.000000
     3  H    1.107243   1.808119   0.000000
     4  H    1.107242   1.808119   1.808119   0.000000
     5  H    1.107243   1.808119   1.808119   1.808119   0.000000
     6  Bq   0.732679   1.839921   1.105427   1.105427   1.105427
     7  Bq   0.732679   1.105427   1.839921   1.105427   1.105427
     8  Bq   0.732679   1.105427   1.105427   1.839921   1.105427
     9  Bq   0.732679   1.105427   1.105427   1.105427   1.839921
    10  C    2.611296   1.899589   2.577435   3.561055   3.040838
    11  H    3.677042   2.859121   3.595673   4.557842   4.136319
    12  H    2.394770   2.034262   1.935241   3.266856   3.047607
    13  H    2.236833   1.206668   2.637998   3.005492   2.733051
    14  H    2.814326   2.359843   2.800637   3.892189   2.832688
    15  Bq   1.931911   1.391054   1.957525   2.945174   2.322084
    16  Bq   2.980638   2.146147   3.147840   3.918981   3.250769
    17  Bq   3.060759   2.526021   2.789665   4.055022   3.430849
    18  Bq   2.727273   1.912923   2.682708   3.520804   3.376946
                    6          7          8          9         10
     6  Bq   0.000000
     7  Bq   1.196459   0.000000
     8  Bq   1.196459   1.196459   0.000000
     9  Bq   1.196459   1.196459   1.196459   0.000000
    10  C    3.208010   2.878055   2.070702   2.561330   0.000000
    11  H    4.290254   3.906443   3.173185   3.534706   1.107243
    12  H    2.852990   2.898215   1.953414   2.175301   1.107243
    13  H    2.949380   2.248874   1.919655   2.172466   1.107243
    14  H    3.290073   3.052764   2.117822   3.033132   1.107243
    15  Bq   2.503920   2.239291   1.345478   1.995505   0.732679
    16  Bq   3.614313   3.090990   2.438892   3.019671   0.732679
    17  Bq   3.562747   3.430133   2.456566   3.021021   0.732679
    18  Bq   3.359545   2.990924   2.346334   2.482317   0.732679
                   11         12         13         14         15
    11  H    0.000000
    12  H    1.808119   0.000000
    13  H    1.808119   1.808119   0.000000
    14  H    1.808119   1.808119   1.808119   0.000000
    15  Bq   1.839921   1.105427   1.105427   1.105427   0.000000
    16  Bq   1.105427   1.839921   1.105427   1.105427   1.196459
    17  Bq   1.105427   1.105427   1.839921   1.105427   1.196459
    18  Bq   1.105427   1.105427   1.105427   1.839921   1.196459
                   16         17         18
    16  Bq   0.000000
    17  Bq   1.196459   0.000000
    18  Bq   1.196459   1.196459   0.000000
 Symmetry turned off by external request.
 Symmetry turned off:
 Cannot cope with ghost atoms or with translation vectors.
 Framework group  C1[X(C2H8)]
 NUMDOF-- NAT=    10 NAtoms=    18
 Deg. of freedom     0
 Rotational constants (GHZ):     76.6916053      8.2514331      8.2514331
 Warning:  center   6 has no basis functions!
 Warning:  center   7 has no basis functions!
 Warning:  center   8 has no basis functions!
 Warning:  center   9 has no basis functions!
 Warning:  center  15 has no basis functions!
 Warning:  center  16 has no basis functions!
 Warning:  center  17 has no basis functions!
 Warning:  center  18 has no basis functions!
   276 basis functions,   360 primitive gaussians,   310 cartesian basis functions
    10 alpha electrons       10 beta electrons
       nuclear repulsion energy        46.5139924488 Hartrees.
 IMHF & INEx in M05                  614413                  385587
 NAtoms=   18 NActive=   18 NUniq=   18 SFac= 1.00D+00 NAtFMM=   60 NAOKFM=F Big=F
 ExpMin= 2.53D-02 ExpMax= 8.24D+03 ExpMxC= 2.81D+02 IAcc=3 IRadAn=         5 AccDes= 0.00D+00
 Harris functional with IExCor= 1009 and IRadAn=       5 diagonalized for initial guess.
 HarFok:  IExCor= 1009 AccDes= 0.00D+00 IRadAn=         5 IDoV= 1 UseB2=F ITyADJ=14
 ICtDFT=  3500011 ScaDFX=  1.000000  1.000000  1.000000  1.000000
 FoFCou: FMM=F IPFlag=           0 FMFlag=      100000 FMFlg1=           0
         NFxFlg=           0 DoJE=T BraDBF=F KetDBF=T FulRan=T
         wScrn=  0.000000 ICntrl=     500 IOpCl=  0 I1Cent=   200000004 NGrid=           0
         NMat0=    1 NMatS0=      1 NMatT0=    0 NMatD0=    1 NMtDS0=    0 NMtDT0=    0
 Symmetry not used in FoFCou.
 SCF Done:  E(RM05) =  -81.7637181705     A.U. after    9 cycles
            NFock=  9  Conv=0.78D-08     -V/T= 2.0088

 **********************************************************************

            Population analysis using the SCF density.

 **********************************************************************

 Alpha  occ. eigenvalues --  -10.74210 -10.72638  -0.86223  -0.80154  -0.55947
 Alpha  occ. eigenvalues --   -0.51359  -0.49637  -0.47315  -0.45772  -0.40811
 Alpha virt. eigenvalues --   -0.00448   0.01747   0.02419   0.02543   0.04112
 Alpha virt. eigenvalues --    0.04627   0.04890   0.07201   0.07447   0.08627
 Alpha virt. eigenvalues --    0.09326   0.10514   0.10861   0.11225   0.11935
 Alpha virt. eigenvalues --    0.13629   0.13854   0.14584   0.15362   0.15857
 Alpha virt. eigenvalues --    0.18899   0.19760   0.23106   0.24274   0.25109
 Alpha virt. eigenvalues --    0.25467   0.25765   0.26319   0.27604   0.28212
 Alpha virt. eigenvalues --    0.29080   0.30207   0.30491   0.31855   0.31944
 Alpha virt. eigenvalues --    0.32162   0.33593   0.33841   0.34473   0.35021
 Alpha virt. eigenvalues --    0.35726   0.36071   0.37248   0.39216   0.39499
 Alpha virt. eigenvalues --    0.40133   0.41814   0.42530   0.43310   0.44343
 Alpha virt. eigenvalues --    0.45654   0.46688   0.47722   0.50387   0.50898
 Alpha virt. eigenvalues --    0.52152   0.54236   0.55989   0.57837   0.61888
 Alpha virt. eigenvalues --    0.64364   0.65185   0.66702   0.68968   0.70209
 Alpha virt. eigenvalues --    0.71583   0.72357   0.72903   0.73650   0.74234
 Alpha virt. eigenvalues --    0.75382   0.76371   0.77575   0.79097   0.80793
 Alpha virt. eigenvalues --    0.81975   0.83241   0.84075   0.84828   0.86835
 Alpha virt. eigenvalues --    0.87276   0.88060   0.89637   0.91082   0.91657
 Alpha virt. eigenvalues --    0.93326   0.94301   0.95972   0.96194   0.98321
 Alpha virt. eigenvalues --    0.98842   1.00440   1.01534   1.02816   1.04506
 Alpha virt. eigenvalues --    1.05793   1.06523   1.07523   1.08486   1.09849
 Alpha virt. eigenvalues --    1.11612   1.12446   1.13283   1.15731   1.17550
 Alpha virt. eigenvalues --    1.19361   1.23086   1.25249   1.27884   1.29351
 Alpha virt. eigenvalues --    1.31610   1.33445   1.34139   1.34917   1.37728
 Alpha virt. eigenvalues --    1.41900   1.43509   1.45174   1.46221   1.47101
 Alpha virt. eigenvalues --    1.48807   1.48960   1.49880   1.51565   1.51965
 Alpha virt. eigenvalues --    1.55169   1.57707   1.58544   1.59819   1.63697
 Alpha virt. eigenvalues --    1.64876   1.66679   1.67962   1.69453   1.70428
 Alpha virt. eigenvalues --    1.71388   1.73057   1.75055   1.76930   1.78755
 Alpha virt. eigenvalues --    1.80877   1.83666   1.86171   1.89233   1.91657
 Alpha virt. eigenvalues --    1.92914   1.93830   1.95146   1.97435   2.00388
 Alpha virt. eigenvalues --    2.01726   2.02759   2.05541   2.07777   2.10713
 Alpha virt. eigenvalues --    2.12240   2.16449   2.18905   2.21190   2.39550
 Alpha virt. eigenvalues --    2.49540   2.66085   2.84512   2.91885   2.94322
 Alpha virt. eigenvalues --    2.96890   2.99978   3.01522   3.03683   3.20424
 Alpha virt. eigenvalues --    3.22047   3.23526   3.25126   3.26773   3.29215
 Alpha virt. eigenvalues --    3.30766   3.31241   3.34130   3.37884   3.40242
 Alpha virt. eigenvalues --    3.42244   3.43252   3.43909   3.46934   3.53297
 Alpha virt. eigenvalues --    3.56464   3.57034   3.59695   3.61416   3.63522
 Alpha virt. eigenvalues --    3.66509   3.67134   3.69585   3.72795   3.75409
 Alpha virt. eigenvalues --    3.76240   3.77910   3.80584   3.82606   3.84818
 Alpha virt. eigenvalues --    3.86570   3.88350   3.88957   3.92782   3.95804
 Alpha virt. eigenvalues --    3.99569   4.02141   4.05173   4.16038   4.17495
 Alpha virt. eigenvalues --    4.20394   4.22807   4.26646   4.28337   4.34510
 Alpha virt. eigenvalues --    4.35574   4.37233   4.40301   4.42104   4.43072
 Alpha virt. eigenvalues --    4.44158   4.46514   4.49082   4.51767   4.53167
 Alpha virt. eigenvalues --    4.59849   4.62651   4.64589   4.69223   4.70939
 Alpha virt. eigenvalues --    4.74113   4.82654   4.84836   4.86885   4.90726
 Alpha virt. eigenvalues --    4.91646   5.00335   5.04724   5.09882   5.12001
 Alpha virt. eigenvalues --    5.16365   5.16536   5.20343   5.23543   5.24588
 Alpha virt. eigenvalues --    5.26834   5.33949   5.37983   5.41331   5.46773
 Alpha virt. eigenvalues --    5.51499   5.54965   5.59242   5.66450   5.69652
 Alpha virt. eigenvalues --    5.75422   5.87866   6.08557   6.10499   6.13711
 Alpha virt. eigenvalues --    6.16770   6.20619   6.28145   6.72671  17.36613
 Alpha virt. eigenvalues --   17.85111
          Condensed to atoms (all electrons):
 Mulliken charges:
               1
     1  C   -2.071727
     2  H    0.783785
     3  H    0.449058
     4  H    0.328659
     5  H    0.465980
     6  Bq   0.000000
     7  Bq   0.000000
     8  Bq   0.000000
     9  Bq   0.000000
    10  C   -2.027681
    11  H    0.394917
    12  H    0.582723
    13  H    0.611557
    14  H    0.482729
    15  Bq   0.000000
    16  Bq   0.000000
    17  Bq   0.000000
    18  Bq   0.000000
 Sum of Mulliken charges =  -0.00000
 Mulliken charges with hydrogens summed into heavy atoms:
               1
     1  C   -2.071727
     6  Bq   0.449058
     7  Bq   0.465980
     8  Bq   0.783785
     9  Bq   0.328659
    10  C   -2.027681
    15  Bq   0.482729
    16  Bq   1.006474
    17  Bq   0.000000
    18  Bq   0.582723
 Electronic spatial extent (au):  <R**2>=            316.9784
 Charge=             -0.0000 electrons
 Dipole moment (field-independent basis, Debye):
    X=              0.0564    Y=             -0.0070    Z=              0.2730  Tot=              0.2788

 Test job not archived.
 1\1\GINC-CHIMERA-NODE48\SP\RM05\Gen\C2H8\CONNORNM\08-Dec-2018\0\\#T M0
 5/Gen test Massage SCF=(tight,maxcyc=40)\\M05 opt\\0,1\C,0,0.,0.,0.\H,
 0,0.71020666,0.,0.84946598\H,0,-0.89642778,0.59192124,0.26838861\H,0,0
 .48638688,0.44871777,-0.88773088\H,0,-0.30016576,-1.04063901,-0.230123
 71\Bq,0,-0.46995417,0.,-0.5621041\Bq,0,0.59317941,-0.39168297,-0.17759
 668\Bq,0,-0.32184933,-0.29692313,0.58742455\Bq,0,0.19862409,0.6886061,
 0.15227623\C,0,0.,0.,2.61129637\H,0,0.24946245,0.25385761,3.65977659\H
 ,0,-0.60707545,0.81352303,2.1690005\H,0,0.93376753,-0.12214821,2.02893
 568\H,0,-0.57615453,-0.94523243,2.58747273\Bq,0,-0.16507296,-0.1679813
 1,1.91750164\Bq,0,0.40171073,-0.53832012,2.90397004\Bq,0,-0.61788767,0
 .08082726,2.99665299\Bq,0,0.3812499,0.62547417,2.62706083\\Version=AS6
 4L-G09RevD.01\HF=-81.7637182\RMSD=7.840e-09\Dipole=0.0221765,-0.002749
 ,0.107397\Quadrupole=0.298169,0.2248258,-0.5229948,-0.0277348,0.017438
 1,-0.0214533\PG=C01 [X(C2H8)]\\@


 ... UNTIL SCIENCE IS MIXED WITH EMOTION AND APPEALS TO THE HEART AND
 IMAGINATION , IT IS LIKE DEAD INORGANIC MATTER; AND WHEN IT IS SO MIXED
 AND SO TRANSFORMED IT IS LITERATURE.

                                  -- JOHN BURROUGHS
 Job cpu time:       0 days  0 hours 16 minutes 57.7 seconds.
 File lengths (MBytes):  RWF=     41 Int=      0 D2E=      0 Chk=      4 Scr=      1
 Normal termination of Gaussian 09 at Sat Dec  8 11:26:18 2018.
