 Entering Gaussian System, Link 0=/data/szalewicgrp/connornm/opt/Gaussian/g09-M05-par/g09/g09
 AtFile(1): aug-cc-pVTZ.gbs
 Initial command:
 /data/szalewicgrp/connornm/opt/Gaussian/g09-M05-par/g09/l1.exe "/scratch/local/Gau-3740.inp" -scrdir="/scratch/local/"
 Entering Link 1 = /data/szalewicgrp/connornm/opt/Gaussian/g09-M05-par/g09/l1.exe PID=      3741.
  
 Copyright (c) 1988,1990,1992,1993,1995,1998,2003,2009,2013,
            Gaussian, Inc.  All Rights Reserved.
  
 This is part of the Gaussian(R) 09 program.  It is based on
 the Gaussian(R) 03 system (copyright 2003, Gaussian, Inc.),
 the Gaussian(R) 98 system (copyright 1998, Gaussian, Inc.),
 the Gaussian(R) 94 system (copyright 1995, Gaussian, Inc.),
 the Gaussian 92(TM) system (copyright 1992, Gaussian, Inc.),
 the Gaussian 90(TM) system (copyright 1990, Gaussian, Inc.),
 the Gaussian 88(TM) system (copyright 1988, Gaussian, Inc.),
 the Gaussian 86(TM) system (copyright 1986, Carnegie Mellon
 University), and the Gaussian 82(TM) system (copyright 1983,
 Carnegie Mellon University). Gaussian is a federally registered
 trademark of Gaussian, Inc.
  
 This software contains proprietary and confidential information,
 including trade secrets, belonging to Gaussian, Inc.
  
 This software is provided under written license and may be
 used, copied, transmitted, or stored only in accord with that
 written license.
  
 The following legend is applicable only to US Government
 contracts under FAR:
  
                    RESTRICTED RIGHTS LEGEND
  
 Use, reproduction and disclosure by the US Government is
 subject to restrictions as set forth in subparagraphs (a)
 and (c) of the Commercial Computer Software - Restricted
 Rights clause in FAR 52.227-19.
  
 Gaussian, Inc.
 340 Quinnipiac St., Bldg. 40, Wallingford CT 06492
  
  
 ---------------------------------------------------------------
 Warning -- This program may not be used in any manner that
 competes with the business of Gaussian, Inc. or will provide
 assistance to any competitor of Gaussian, Inc.  The licensee
 of this program is prohibited from giving any competitor of
 Gaussian, Inc. access to this program.  By using this program,
 the user acknowledges that Gaussian, Inc. is engaged in the
 business of creating and licensing software in the field of
 computational chemistry and represents and warrants to the
 licensee that it is not a competitor of Gaussian, Inc. and that
 it will not use this program in any manner prohibited above.
 ---------------------------------------------------------------
  

 Cite this work as:
 Gaussian 09, Revision D.01,
 M. J. Frisch, G. W. Trucks, H. B. Schlegel, G. E. Scuseria, 
 M. A. Robb, J. R. Cheeseman, G. Scalmani, V. Barone, B. Mennucci, 
 G. A. Petersson, H. Nakatsuji, M. Caricato, X. Li, H. P. Hratchian, 
 A. F. Izmaylov, J. Bloino, G. Zheng, J. L. Sonnenberg, M. Hada, 
 M. Ehara, K. Toyota, R. Fukuda, J. Hasegawa, M. Ishida, T. Nakajima, 
 Y. Honda, O. Kitao, H. Nakai, T. Vreven, J. A. Montgomery, Jr., 
 J. E. Peralta, F. Ogliaro, M. Bearpark, J. J. Heyd, E. Brothers, 
 K. N. Kudin, V. N. Staroverov, T. Keith, R. Kobayashi, J. Normand, 
 K. Raghavachari, A. Rendell, J. C. Burant, S. S. Iyengar, J. Tomasi, 
 M. Cossi, N. Rega, J. M. Millam, M. Klene, J. E. Knox, J. B. Cross, 
 V. Bakken, C. Adamo, J. Jaramillo, R. Gomperts, R. E. Stratmann, 
 O. Yazyev, A. J. Austin, R. Cammi, C. Pomelli, J. W. Ochterski, 
 R. L. Martin, K. Morokuma, V. G. Zakrzewski, G. A. Voth, 
 P. Salvador, J. J. Dannenberg, S. Dapprich, A. D. Daniels, 
 O. Farkas, J. B. Foresman, J. V. Ortiz, J. Cioslowski, 
 and D. J. Fox, Gaussian, Inc., Wallingford CT, 2013.
 
 ******************************************
 Gaussian 09:  AS64L-G09RevD.01 24-Apr-2013
                 6-Dec-2018 
 ******************************************
 %Chk=CH400292
 %Mem=2GB
 %NProcShared=16
 Will use up to   16 processors via shared memory.
 -----------------------------------------------------------
 #T M05/Gen test Massage Symmetry=None SCF=(tight,maxcyc=60)
 -----------------------------------------------------------
 -------
 M05 opt
 -------
 Symbolic Z-matrix:
 Charge =  0 Multiplicity = 1
 6                     0.        0.        0. 
 1                     0.94241   0.        0.58125 
 1                    -0.30151  -1.04364  -0.21422 
 1                    -0.79491   0.50099   0.58576 
 1                     0.15401   0.54265  -0.95278 
 0                    -0.62361   0.       -0.38462 
 0                     0.19951   0.69059   0.14175 
 0                     0.526    -0.33151  -0.38761 
 0                    -0.10191  -0.35908   0.63047 
 6                     0.        0.        4.28526 
 1                     1.04281  -0.03299   3.91452 
 1                    -0.61453  -0.73028   3.72399 
 1                    -0.01686  -0.25435   5.36276 
 1                    -0.41142   1.01762   4.13977 
 0                    -0.69004   0.02183   4.53058 
 0                     0.40665   0.48324   4.65666 
 0                     0.01115   0.16831   3.57226 
 0                     0.27224  -0.67338   4.38153 
 
                    Distance matrix (angstroms):
                    1          2          3          4          5
     1  C    0.000000
     2  H    1.107243   0.000000
     3  H    1.107242   1.808119   0.000000
     4  H    1.107243   1.808119   1.808119   0.000000
     5  H    1.107243   1.808119   1.808119   1.808119   0.000000
     6  Bq   0.732679   1.839921   1.105427   1.105427   1.105427
     7  Bq   0.732679   1.105427   1.839921   1.105427   1.105427
     8  Bq   0.732679   1.105427   1.105427   1.839921   1.105427
     9  Bq   0.732679   1.105427   1.105427   1.105427   1.839921
    10  C    4.285257   3.822020   4.628757   3.816957   5.268326
    11  H    4.051169   3.334945   4.458147   3.839656   4.981157
    12  H    3.844350   3.582485   3.963035   3.375949   4.907462
    13  H    5.368812   4.883415   5.639741   4.898533   6.367925
    14  H    4.282817   3.941003   4.818519   3.611782   5.145815
    15  Bq   4.582882   4.273481   4.878456   3.975201   5.572341
    16  Bq   4.699292   4.138787   5.153475   4.244558   5.615443
    17  Bq   3.576240   3.137153   3.987984   3.111206   4.542748
    18  Bq   4.441321   3.917232   4.646202   4.114099   5.472438
                    6          7          8          9         10
     6  Bq   0.000000
     7  Bq   1.196459   0.000000
     8  Bq   1.196459   1.196459   0.000000
     9  Bq   1.196459   1.196459   1.196459   0.000000
    10  C    4.711330   4.205396   4.714045   3.673797   0.000000
    11  H    4.610920   3.932995   4.343322   3.493088   1.107243
    12  H    4.173011   3.938774   4.285442   3.157594   1.107243
    13  H    5.784909   5.310238   5.776445   4.734209   1.107243
    14  H    4.642271   4.057626   4.816228   3.782365   1.107242
    15  Bq   4.915698   4.527734   5.078600   3.962557   0.732679
    16  Bq   5.168116   4.524409   5.111033   4.144673   0.732679
    17  Bq   4.011002   3.475145   4.024353   2.990826   0.732679
    18  Bq   4.896135   4.454368   4.788099   3.782750   0.732679
                   11         12         13         14         15
    11  H    0.000000
    12  H    1.808119   0.000000
    13  H    1.808119   1.808119   0.000000
    14  H    1.808119   1.808119   1.808119   0.000000
    15  Bq   1.839921   1.105427   1.105427   1.105427   0.000000
    16  Bq   1.105427   1.839921   1.105427   1.105427   1.196459
    17  Bq   1.105427   1.105427   1.839921   1.105427   1.196459
    18  Bq   1.105427   1.105427   1.105427   1.839921   1.196459
                   16         17         18
    16  Bq   0.000000
    17  Bq   1.196459   0.000000
    18  Bq   1.196459   1.196459   0.000000
 Symmetry turned off by external request.
 Rotational constants (GHZ):     76.6916054      3.2862790      3.2862790
 Warning:  center   6 has no basis functions!
 Warning:  center   7 has no basis functions!
 Warning:  center   8 has no basis functions!
 Warning:  center   9 has no basis functions!
 Warning:  center  15 has no basis functions!
 Warning:  center  16 has no basis functions!
 Warning:  center  17 has no basis functions!
 Warning:  center  18 has no basis functions!
   276 basis functions,   360 primitive gaussians,   310 cartesian basis functions
    10 alpha electrons       10 beta electrons
       nuclear repulsion energy        38.7454715840 Hartrees.
 IMHF & INEx in M05                  614413                  385587
 NAtoms=   18 NActive=   18 NUniq=   18 SFac= 1.00D+00 NAtFMM=   60 NAOKFM=F Big=F
 ExpMin= 2.53D-02 ExpMax= 8.24D+03 ExpMxC= 2.81D+02 IAcc=3 IRadAn=         5 AccDes= 0.00D+00
 Harris functional with IExCor= 1009 and IRadAn=       5 diagonalized for initial guess.
 HarFok:  IExCor= 1009 AccDes= 0.00D+00 IRadAn=         5 IDoV= 1 UseB2=F ITyADJ=14
 ICtDFT=  3500011 ScaDFX=  1.000000  1.000000  1.000000  1.000000
 FoFCou: FMM=F IPFlag=           0 FMFlag=      100000 FMFlg1=           0
         NFxFlg=           0 DoJE=T BraDBF=F KetDBF=T FulRan=T
         wScrn=  0.000000 ICntrl=     500 IOpCl=  0 I1Cent=   200000004 NGrid=           0
         NMat0=    1 NMatS0=      1 NMatT0=    0 NMatD0=    1 NMtDS0=    0 NMtDT0=    0
 Symmetry not used in FoFCou.
 SCF Done:  E(RM05) =  -81.8243007272     A.U. after    8 cycles
            NFock=  8  Conv=0.22D-08     -V/T= 2.0127

 **********************************************************************

            Population analysis using the SCF density.

 **********************************************************************

 Alpha  occ. eigenvalues --  -10.74504 -10.74485  -0.82812  -0.82661  -0.49034
 Alpha  occ. eigenvalues --   -0.48865  -0.48782  -0.48664  -0.48579  -0.48398
 Alpha virt. eigenvalues --   -0.00574   0.01209   0.02350   0.02454   0.03522
 Alpha virt. eigenvalues --    0.04394   0.04640   0.05886   0.08098   0.08550
 Alpha virt. eigenvalues --    0.08689   0.09941   0.10240   0.10602   0.11298
 Alpha virt. eigenvalues --    0.12385   0.13047   0.14905   0.15174   0.15631
 Alpha virt. eigenvalues --    0.16214   0.16728   0.17114   0.19839   0.20652
 Alpha virt. eigenvalues --    0.24807   0.25658   0.26412   0.26790   0.27002
 Alpha virt. eigenvalues --    0.27540   0.27970   0.28135   0.28305   0.29036
 Alpha virt. eigenvalues --    0.30434   0.31263   0.31475   0.32136   0.32575
 Alpha virt. eigenvalues --    0.34144   0.34523   0.34768   0.35682   0.35981
 Alpha virt. eigenvalues --    0.36871   0.36952   0.37927   0.38161   0.38801
 Alpha virt. eigenvalues --    0.41454   0.42142   0.42373   0.44662   0.45096
 Alpha virt. eigenvalues --    0.46446   0.46781   0.48833   0.56346   0.58626
 Alpha virt. eigenvalues --    0.60473   0.61254   0.64740   0.65434   0.65765
 Alpha virt. eigenvalues --    0.68669   0.70518   0.71520   0.72052   0.74617
 Alpha virt. eigenvalues --    0.75283   0.76915   0.77757   0.78038   0.79105
 Alpha virt. eigenvalues --    0.79603   0.80558   0.80878   0.83986   0.84275
 Alpha virt. eigenvalues --    0.85276   0.85775   0.86313   0.86713   0.87581
 Alpha virt. eigenvalues --    0.87972   0.88662   0.89542   0.90846   0.91760
 Alpha virt. eigenvalues --    0.94567   0.94637   0.95135   0.96041   0.96491
 Alpha virt. eigenvalues --    0.97248   0.97683   0.98129   0.98699   1.00623
 Alpha virt. eigenvalues --    1.01698   1.01968   1.02453   1.04999   1.06065
 Alpha virt. eigenvalues --    1.09188   1.10697   1.11418   1.12916   1.13190
 Alpha virt. eigenvalues --    1.13401   1.14938   1.17650   1.18660   1.19106
 Alpha virt. eigenvalues --    1.23141   1.26099   1.31011   1.41071   1.43583
 Alpha virt. eigenvalues --    1.44102   1.44625   1.45116   1.45543   1.46533
 Alpha virt. eigenvalues --    1.47061   1.47516   1.47701   1.48652   1.49742
 Alpha virt. eigenvalues --    1.51489   1.52752   1.56253   1.57885   1.59000
 Alpha virt. eigenvalues --    1.60462   1.61397   1.65722   1.67118   1.67820
 Alpha virt. eigenvalues --    1.68320   1.69998   1.70360   1.73620   1.75121
 Alpha virt. eigenvalues --    1.76925   1.78049   1.78732   1.80339   1.82232
 Alpha virt. eigenvalues --    1.92986   1.94860   1.95916   1.96742   1.97767
 Alpha virt. eigenvalues --    1.98221   2.03271   2.05655   2.07120   2.08071
 Alpha virt. eigenvalues --    2.38555   2.39134   2.63765   2.65206   2.85724
 Alpha virt. eigenvalues --    2.87213   2.88058   2.88603   2.90502   2.92971
 Alpha virt. eigenvalues --    3.17112   3.19192   3.19706   3.20999   3.21166
 Alpha virt. eigenvalues --    3.21384   3.22148   3.22546   3.23128   3.23717
 Alpha virt. eigenvalues --    3.26273   3.26837   3.27123   3.28649   3.29793
 Alpha virt. eigenvalues --    3.32558   3.57052   3.57362   3.57861   3.57907
 Alpha virt. eigenvalues --    3.58851   3.59338   3.69354   3.70057   3.70316
 Alpha virt. eigenvalues --    3.70690   3.71643   3.71910   3.72744   3.73366
 Alpha virt. eigenvalues --    3.74201   3.74817   3.76602   3.78360   3.81468
 Alpha virt. eigenvalues --    3.82149   3.82833   3.83183   3.84553   3.84987
 Alpha virt. eigenvalues --    4.18054   4.18071   4.18216   4.19394   4.20241
 Alpha virt. eigenvalues --    4.20874   4.31821   4.32519   4.33192   4.34261
 Alpha virt. eigenvalues --    4.35706   4.36579   4.37490   4.38293   4.40301
 Alpha virt. eigenvalues --    4.41437   4.49596   4.49750   4.49905   4.50420
 Alpha virt. eigenvalues --    4.50933   4.52115   4.75693   4.77904   4.78548
 Alpha virt. eigenvalues --    4.78590   4.78816   4.78993   4.79221   4.80506
 Alpha virt. eigenvalues --    5.14224   5.14600   5.14823   5.14994   5.15180
 Alpha virt. eigenvalues --    5.15542   5.21685   5.23686   5.32042   5.32243
 Alpha virt. eigenvalues --    5.32373   5.32744   5.57403   5.57811   5.58170
 Alpha virt. eigenvalues --    5.58496   5.58866   5.59354   6.02959   6.04225
 Alpha virt. eigenvalues --    6.04821   6.05594   6.06967   6.10326  16.62587
 Alpha virt. eigenvalues --   16.66306
          Condensed to atoms (all electrons):
 Mulliken charges:
               1
     1  C   -1.836093
     2  H    0.468635
     3  H    0.462920
     4  H    0.458942
     5  H    0.440601
     6  Bq   0.000000
     7  Bq   0.000000
     8  Bq   0.000000
     9  Bq   0.000000
    10  C   -1.867743
    11  H    0.474617
    12  H    0.467631
    13  H    0.457491
    14  H    0.472999
    15  Bq   0.000000
    16  Bq   0.000000
    17  Bq   0.000000
    18  Bq   0.000000
 Sum of Mulliken charges =   0.00000
 Mulliken charges with hydrogens summed into heavy atoms:
               1
     1  C   -1.836093
     6  Bq   0.000000
     7  Bq   0.909236
     8  Bq   0.000000
     9  Bq   0.921861
    10  C   -1.867743
    15  Bq   0.467631
    16  Bq   0.000000
    17  Bq   0.472999
    18  Bq   0.932109
 Electronic spatial extent (au):  <R**2>=            728.8953
 Charge=              0.0000 electrons
 Dipole moment (field-independent basis, Debye):
    X=             -0.0011    Y=             -0.0002    Z=              0.0029  Tot=              0.0031

 Test job not archived.
 1\1\GINC-CHIMERA-NODE38\SP\RM05\Gen\C2H8\CONNORNM\06-Dec-2018\0\\#T M0
 5/Gen test Massage Symmetry=None SCF=(tight,maxcyc=60)\\M05 opt\\0,1\C
 ,0,0.,0.,0.\H,0,0.94241145,0.,0.58124575\H,0,-0.30151086,-1.04364111,-
 0.2142204\H,0,-0.79490947,0.50099056,0.58575878\H,0,0.15400889,0.54265
 056,-0.95278413\Bq,0,-0.62360748,0.,-0.38461884\Bq,0,0.19951416,0.6905
 9263,0.14175278\Bq,0,0.52600326,-0.3315128,-0.38760518\Bq,0,-0.1019099
 4,-0.35907983,0.63047123\C,0,0.,0.,4.28525708\H,0,1.04280794,-0.032988
 56,3.91451549\H,0,-0.61453276,-0.73028045,3.72398539\H,0,-0.01685704,-
 0.25435307,5.36275711\H,0,-0.41141813,1.01762207,4.13977032\Bq,0,-0.69
 004131,0.02182901,4.53058222\Bq,0,0.40664534,0.48323728,4.65665879\Bq,
 0,0.01115455,0.16830916,3.5722595\Bq,0,0.27224141,-0.67337545,4.381527
 8\\Version=AS64L-G09RevD.01\HF=-81.8243007\RMSD=2.205e-09\Dipole=-0.00
 04442,-0.0000695,0.0011412\Quadrupole=0.0101006,0.0113089,-0.0214095,0
 .0003031,-0.0034629,-0.0050213\PG=Unknown\\@


 THE MORE POWERFUL THE METHOD, THE MORE CATASTROPHIC THE ERRORS.
     -- M.D. KAMEN
 Job cpu time:       0 days  0 hours 12 minutes 36.2 seconds.
 File lengths (MBytes):  RWF=     41 Int=      0 D2E=      0 Chk=      4 Scr=      1
 Normal termination of Gaussian 09 at Thu Dec  6 13:21:29 2018.
