 Entering Gaussian System, Link 0=/data/szalewicgrp/connornm/opt/Gaussian/g09-M05-par/g09/g09
 AtFile(1): aug-cc-pVTZ.gbs
 Initial command:
 /data/szalewicgrp/connornm/opt/Gaussian/g09-M05-par/g09/l1.exe "/scratch/local/Gau-46447.inp" -scrdir="/scratch/local/"
 Entering Link 1 = /data/szalewicgrp/connornm/opt/Gaussian/g09-M05-par/g09/l1.exe PID=     46448.
  
 Copyright (c) 1988,1990,1992,1993,1995,1998,2003,2009,2013,
            Gaussian, Inc.  All Rights Reserved.
  
 This is part of the Gaussian(R) 09 program.  It is based on
 the Gaussian(R) 03 system (copyright 2003, Gaussian, Inc.),
 the Gaussian(R) 98 system (copyright 1998, Gaussian, Inc.),
 the Gaussian(R) 94 system (copyright 1995, Gaussian, Inc.),
 the Gaussian 92(TM) system (copyright 1992, Gaussian, Inc.),
 the Gaussian 90(TM) system (copyright 1990, Gaussian, Inc.),
 the Gaussian 88(TM) system (copyright 1988, Gaussian, Inc.),
 the Gaussian 86(TM) system (copyright 1986, Carnegie Mellon
 University), and the Gaussian 82(TM) system (copyright 1983,
 Carnegie Mellon University). Gaussian is a federally registered
 trademark of Gaussian, Inc.
  
 This software contains proprietary and confidential information,
 including trade secrets, belonging to Gaussian, Inc.
  
 This software is provided under written license and may be
 used, copied, transmitted, or stored only in accord with that
 written license.
  
 The following legend is applicable only to US Government
 contracts under FAR:
  
                    RESTRICTED RIGHTS LEGEND
  
 Use, reproduction and disclosure by the US Government is
 subject to restrictions as set forth in subparagraphs (a)
 and (c) of the Commercial Computer Software - Restricted
 Rights clause in FAR 52.227-19.
  
 Gaussian, Inc.
 340 Quinnipiac St., Bldg. 40, Wallingford CT 06492
  
  
 ---------------------------------------------------------------
 Warning -- This program may not be used in any manner that
 competes with the business of Gaussian, Inc. or will provide
 assistance to any competitor of Gaussian, Inc.  The licensee
 of this program is prohibited from giving any competitor of
 Gaussian, Inc. access to this program.  By using this program,
 the user acknowledges that Gaussian, Inc. is engaged in the
 business of creating and licensing software in the field of
 computational chemistry and represents and warrants to the
 licensee that it is not a competitor of Gaussian, Inc. and that
 it will not use this program in any manner prohibited above.
 ---------------------------------------------------------------
  

 Cite this work as:
 Gaussian 09, Revision D.01,
 M. J. Frisch, G. W. Trucks, H. B. Schlegel, G. E. Scuseria, 
 M. A. Robb, J. R. Cheeseman, G. Scalmani, V. Barone, B. Mennucci, 
 G. A. Petersson, H. Nakatsuji, M. Caricato, X. Li, H. P. Hratchian, 
 A. F. Izmaylov, J. Bloino, G. Zheng, J. L. Sonnenberg, M. Hada, 
 M. Ehara, K. Toyota, R. Fukuda, J. Hasegawa, M. Ishida, T. Nakajima, 
 Y. Honda, O. Kitao, H. Nakai, T. Vreven, J. A. Montgomery, Jr., 
 J. E. Peralta, F. Ogliaro, M. Bearpark, J. J. Heyd, E. Brothers, 
 K. N. Kudin, V. N. Staroverov, T. Keith, R. Kobayashi, J. Normand, 
 K. Raghavachari, A. Rendell, J. C. Burant, S. S. Iyengar, J. Tomasi, 
 M. Cossi, N. Rega, J. M. Millam, M. Klene, J. E. Knox, J. B. Cross, 
 V. Bakken, C. Adamo, J. Jaramillo, R. Gomperts, R. E. Stratmann, 
 O. Yazyev, A. J. Austin, R. Cammi, C. Pomelli, J. W. Ochterski, 
 R. L. Martin, K. Morokuma, V. G. Zakrzewski, G. A. Voth, 
 P. Salvador, J. J. Dannenberg, S. Dapprich, A. D. Daniels, 
 O. Farkas, J. B. Foresman, J. V. Ortiz, J. Cioslowski, 
 and D. J. Fox, Gaussian, Inc., Wallingford CT, 2013.
 
 ******************************************
 Gaussian 09:  AS64L-G09RevD.01 24-Apr-2013
                 7-Dec-2018 
 ******************************************
 %Chk=CH400010
 %Mem=2GB
 %NProcShared=16
 Will use up to   16 processors via shared memory.
 ---------------------------------------------
 #T M05/Gen test Massage SCF=(tight,maxcyc=40)
 ---------------------------------------------
 -------
 M05 opt
 -------
 Symbolic Z-matrix:
 Charge =  0 Multiplicity = 1
 6                     0.        0.        0. 
 1                     1.02679   0.        0.41436 
 1                    -0.07708   0.76658  -0.79524 
 1                    -0.22641  -0.99696  -0.4252 
 1                    -0.72329   0.23038   0.80607 
 0                    -0.67944   0.       -0.27419 
 0                     0.05101  -0.50726   0.52622 
 0                     0.14982   0.6597    0.28136 
 0                     0.47861  -0.15245  -0.53339 
 6                     0.        0.        4.17587 
 1                     0.80272   0.68856   4.50374 
 1                    -0.95567   0.29418   4.6514 
 1                    -0.10418   0.05227   3.07478 
 1                     0.25714  -1.03501   4.47355 
 0                    -0.53117  -0.45563   3.9589 
 0                     0.63238  -0.19466   3.8612 
 0                     0.06894  -0.03459   4.90447 
 0                    -0.17015   0.68488   3.97889 
 
                    Distance matrix (angstroms):
                    1          2          3          4          5
     1  C    0.000000
     2  H    1.107243   0.000000
     3  H    1.107243   1.808119   0.000000
     4  H    1.107242   1.808119   1.808119   0.000000
     5  H    1.107243   1.808119   1.808119   1.808119   0.000000
     6  Bq   0.732679   1.839921   1.105427   1.105427   1.105427
     7  Bq   0.732679   1.105427   1.839921   1.105427   1.105427
     8  Bq   0.732679   1.105427   1.105427   1.839921   1.105427
     9  Bq   0.732679   1.105427   1.105427   1.105427   1.839921
    10  C    4.175867   3.899128   5.030453   4.713278   3.454234
    11  H    4.626251   4.152996   5.372090   5.309857   4.026341
    12  H    4.757664   4.687128   5.537232   5.288734   3.852868
    13  H    3.076985   2.891302   3.935477   3.655906   2.358397
    14  H    4.598912   4.259177   5.578308   4.922699   4.001603
    15  Bq   4.020283   3.898540   4.929693   4.427897   3.232317
    16  Bq   3.917482   3.474786   4.807259   4.444594   3.369321
    17  Bq   4.905081   4.591271   5.757595   5.423910   4.182670
    18  Bq   4.040985   3.821984   4.775731   4.714630   3.252581
                    6          7          8          9         10
     6  Bq   0.000000
     7  Bq   1.196459   0.000000
     8  Bq   1.196459   1.196459   0.000000
     9  Bq   1.196459   1.196459   1.196459   0.000000
    10  C    4.501626   3.685082   3.952826   4.735971   0.000000
    11  H    5.049711   4.220872   4.272663   5.117136   1.107243
    12  H    4.942091   4.321203   4.522495   5.398028   1.107243
    13  H    3.398415   2.613865   2.869959   3.660660   1.107243
    14  H    4.948679   3.987781   4.523053   5.088949   1.107243
    15  Bq   4.260126   3.482085   3.902827   4.614359   0.732679
    16  Bq   4.342836   3.399677   3.711882   4.397483   0.732679
    17  Bq   5.232574   4.403730   4.675657   5.454549   0.732679
    18  Bq   4.337869   3.659374   3.711431   4.634941   0.732679
                   11         12         13         14         15
    11  H    0.000000
    12  H    1.808119   0.000000
    13  H    1.808119   1.808119   0.000000
    14  H    1.808119   1.808119   1.808119   0.000000
    15  Bq   1.839921   1.105427   1.105427   1.105427   0.000000
    16  Bq   1.105427   1.839921   1.105427   1.105427   1.196459
    17  Bq   1.105427   1.105427   1.839921   1.105427   1.196459
    18  Bq   1.105427   1.105427   1.105427   1.839921   1.196459
                   16         17         18
    16  Bq   0.000000
    17  Bq   1.196459   0.000000
    18  Bq   1.196459   1.196459   0.000000
 Symmetry turned off by external request.
 Symmetry turned off:
 Cannot cope with ghost atoms or with translation vectors.
 Framework group  C1[X(C2H8)]
 NUMDOF-- NAT=    10 NAtoms=    18
 Deg. of freedom     0
 Rotational constants (GHZ):     76.6916053      3.4528549      3.4528549
 Warning:  center   6 has no basis functions!
 Warning:  center   7 has no basis functions!
 Warning:  center   8 has no basis functions!
 Warning:  center   9 has no basis functions!
 Warning:  center  15 has no basis functions!
 Warning:  center  16 has no basis functions!
 Warning:  center  17 has no basis functions!
 Warning:  center  18 has no basis functions!
   276 basis functions,   360 primitive gaussians,   310 cartesian basis functions
    10 alpha electrons       10 beta electrons
       nuclear repulsion energy        39.1769289553 Hartrees.
 IMHF & INEx in M05                  614413                  385587
 NAtoms=   18 NActive=   18 NUniq=   18 SFac= 1.00D+00 NAtFMM=   60 NAOKFM=F Big=F
 ExpMin= 2.53D-02 ExpMax= 8.24D+03 ExpMxC= 2.81D+02 IAcc=3 IRadAn=         5 AccDes= 0.00D+00
 Harris functional with IExCor= 1009 and IRadAn=       5 diagonalized for initial guess.
 HarFok:  IExCor= 1009 AccDes= 0.00D+00 IRadAn=         5 IDoV= 1 UseB2=F ITyADJ=14
 ICtDFT=  3500011 ScaDFX=  1.000000  1.000000  1.000000  1.000000
 FoFCou: FMM=F IPFlag=           0 FMFlag=      100000 FMFlg1=           0
         NFxFlg=           0 DoJE=T BraDBF=F KetDBF=T FulRan=T
         wScrn=  0.000000 ICntrl=     500 IOpCl=  0 I1Cent=   200000004 NGrid=           0
         NMat0=    1 NMatS0=      1 NMatT0=    0 NMatD0=    1 NMtDS0=    0 NMtDT0=    0
 Symmetry not used in FoFCou.
 SCF Done:  E(RM05) =  -81.8236317367     A.U. after    9 cycles
            NFock=  9  Conv=0.11D-08     -V/T= 2.0126

 **********************************************************************

            Population analysis using the SCF density.

 **********************************************************************

 Alpha  occ. eigenvalues --  -10.74593 -10.74413  -0.82959  -0.82607  -0.49830
 Alpha  occ. eigenvalues --   -0.48876  -0.48829  -0.48669  -0.48644  -0.47722
 Alpha virt. eigenvalues --   -0.00507   0.01242   0.02323   0.02430   0.03915
 Alpha virt. eigenvalues --    0.04161   0.04454   0.06372   0.07958   0.08745
 Alpha virt. eigenvalues --    0.08888   0.09304   0.10227   0.10819   0.11071
 Alpha virt. eigenvalues --    0.13681   0.14423   0.14806   0.15161   0.15352
 Alpha virt. eigenvalues --    0.15746   0.16681   0.17609   0.20088   0.20959
 Alpha virt. eigenvalues --    0.25256   0.25748   0.26053   0.26827   0.26958
 Alpha virt. eigenvalues --    0.28031   0.28597   0.29036   0.29894   0.29941
 Alpha virt. eigenvalues --    0.30611   0.31335   0.32478   0.32806   0.33734
 Alpha virt. eigenvalues --    0.34034   0.34519   0.34979   0.35156   0.35495
 Alpha virt. eigenvalues --    0.37084   0.37399   0.38392   0.38740   0.40056
 Alpha virt. eigenvalues --    0.41633   0.42845   0.44563   0.44991   0.46484
 Alpha virt. eigenvalues --    0.46880   0.48642   0.52916   0.57314   0.58265
 Alpha virt. eigenvalues --    0.59707   0.64290   0.65421   0.67933   0.68288
 Alpha virt. eigenvalues --    0.70184   0.71377   0.71682   0.72663   0.73169
 Alpha virt. eigenvalues --    0.74782   0.76913   0.77395   0.78141   0.79342
 Alpha virt. eigenvalues --    0.80475   0.81059   0.82382   0.84027   0.84593
 Alpha virt. eigenvalues --    0.85358   0.86013   0.86372   0.87111   0.87737
 Alpha virt. eigenvalues --    0.89099   0.90168   0.91517   0.92758   0.93604
 Alpha virt. eigenvalues --    0.94995   0.95454   0.96480   0.96657   0.97028
 Alpha virt. eigenvalues --    0.98318   0.98741   0.99126   1.01442   1.01986
 Alpha virt. eigenvalues --    1.03486   1.04364   1.05730   1.07603   1.08612
 Alpha virt. eigenvalues --    1.09711   1.10570   1.11012   1.12069   1.15282
 Alpha virt. eigenvalues --    1.16896   1.17958   1.18616   1.21064   1.22962
 Alpha virt. eigenvalues --    1.27162   1.31849   1.39248   1.42998   1.43568
 Alpha virt. eigenvalues --    1.43969   1.44382   1.45897   1.46204   1.46879
 Alpha virt. eigenvalues --    1.46890   1.48178   1.48651   1.51498   1.51968
 Alpha virt. eigenvalues --    1.55257   1.57066   1.58574   1.58837   1.60786
 Alpha virt. eigenvalues --    1.61965   1.64132   1.67583   1.68494   1.69408
 Alpha virt. eigenvalues --    1.70448   1.71872   1.74962   1.75253   1.76317
 Alpha virt. eigenvalues --    1.78142   1.81935   1.83187   1.86247   1.92706
 Alpha virt. eigenvalues --    1.95280   1.97124   1.98940   1.99766   2.01939
 Alpha virt. eigenvalues --    2.03862   2.06047   2.10218   2.10553   2.14121
 Alpha virt. eigenvalues --    2.37788   2.57336   2.66954   2.79784   2.87298
 Alpha virt. eigenvalues --    2.88895   2.89294   2.90755   2.92206   2.96515
 Alpha virt. eigenvalues --    3.16930   3.19891   3.20295   3.20886   3.21378
 Alpha virt. eigenvalues --    3.22584   3.24523   3.24735   3.25607   3.26586
 Alpha virt. eigenvalues --    3.27650   3.28458   3.28632   3.29920   3.31785
 Alpha virt. eigenvalues --    3.39634   3.57547   3.58086   3.59196   3.59244
 Alpha virt. eigenvalues --    3.60134   3.69056   3.70693   3.71372   3.71559
 Alpha virt. eigenvalues --    3.71891   3.72175   3.73918   3.75468   3.76006
 Alpha virt. eigenvalues --    3.76741   3.77591   3.78493   3.80842   3.82318
 Alpha virt. eigenvalues --    3.83337   3.84403   3.85183   3.86451   3.89920
 Alpha virt. eigenvalues --    4.17898   4.18710   4.18901   4.19640   4.21019
 Alpha virt. eigenvalues --    4.22830   4.32264   4.33848   4.34451   4.36034
 Alpha virt. eigenvalues --    4.37808   4.38362   4.39720   4.40397   4.41279
 Alpha virt. eigenvalues --    4.45930   4.49701   4.50291   4.50504   4.51373
 Alpha virt. eigenvalues --    4.54394   4.57066   4.76482   4.78042   4.78529
 Alpha virt. eigenvalues --    4.79014   4.79935   4.80606   4.81377   5.01743
 Alpha virt. eigenvalues --    5.13985   5.14171   5.14625   5.15742   5.16080
 Alpha virt. eigenvalues --    5.19536   5.23569   5.25070   5.32074   5.32764
 Alpha virt. eigenvalues --    5.32877   5.33641   5.58177   5.58463   5.58583
 Alpha virt. eigenvalues --    5.59083   5.61861   5.65632   6.04090   6.04255
 Alpha virt. eigenvalues --    6.05362   6.06561   6.09629   6.12133  16.62519
 Alpha virt. eigenvalues --   17.06376
          Condensed to atoms (all electrons):
 Mulliken charges:
               1
     1  C   -1.835454
     2  H    0.461318
     3  H    0.419651
     4  H    0.449052
     5  H    0.466255
     6  Bq   0.000000
     7  Bq   0.000000
     8  Bq   0.000000
     9  Bq   0.000000
    10  C   -1.901559
    11  H    0.405630
    12  H    0.406051
    13  H    0.722138
    14  H    0.406917
    15  Bq   0.000000
    16  Bq   0.000000
    17  Bq   0.000000
    18  Bq   0.000000
 Sum of Mulliken charges =  -0.00000
 Mulliken charges with hydrogens summed into heavy atoms:
               1
     1  C   -1.835454
     6  Bq   0.466255
     7  Bq   0.910371
     8  Bq   0.000000
     9  Bq   0.419651
    10  C   -1.901559
    15  Bq   0.406917
    16  Bq   0.722138
    17  Bq   0.000000
    18  Bq   0.811681
 Electronic spatial extent (au):  <R**2>=            695.9658
 Charge=              0.0000 electrons
 Dipole moment (field-independent basis, Debye):
    X=              0.0058    Y=             -0.0023    Z=             -0.0421  Tot=              0.0426

 Test job not archived.
 1\1\GINC-CHIMERA-NODE48\SP\RM05\Gen\C2H8\CONNORNM\07-Dec-2018\0\\#T M0
 5/Gen test Massage SCF=(tight,maxcyc=40)\\M05 opt\\0,1\C,0,0.,0.,0.\H,
 0,1.02678609,0.,0.4143625\H,0,-0.07708056,0.76657767,-0.79523784\H,0,-
 0.22641106,-0.99696055,-0.42519835\H,0,-0.72329447,0.23038288,0.806073
 69\Bq,0,-0.67943942,0.,-0.27418974\Bq,0,0.05100534,-0.50725569,0.52622
 054\Bq,0,0.14981952,0.65970342,0.28135999\Bq,0,0.47861456,-0.15244773,
 -0.53339079\C,0,0.,0.,4.17586654\H,0,0.80272155,0.6885637,4.50374474\H
 ,0,-0.95567426,0.29418011,4.6513986\H,0,-0.10418287,0.05227014,3.07477
 63\H,0,0.25713558,-1.03501395,4.47354654\Bq,0,-0.53117262,-0.4556327,3
 .95890474\Bq,0,0.63238367,-0.19466329,3.86120001\Bq,0,0.06893933,-0.03
 458792,4.90447411\Bq,0,-0.17015038,0.68488391,3.97888733\\Version=AS64
 L-G09RevD.01\HF=-81.8236317\RMSD=1.080e-09\Dipole=0.0022922,-0.0009092
 ,-0.016577\Quadrupole=0.0599625,0.0607949,-0.1207574,0.0001961,0.01125
 63,-0.0042371\PG=C01 [X(C2H8)]\\@


 Time has a wonderful way of weeding out the trivial.
                                -- Richard Ben Sapir
 Job cpu time:       0 days  0 hours 13 minutes 54.6 seconds.
 File lengths (MBytes):  RWF=     41 Int=      0 D2E=      0 Chk=      4 Scr=      1
 Normal termination of Gaussian 09 at Fri Dec  7 21:17:24 2018.
