 Entering Gaussian System, Link 0=/data/szalewicgrp/connornm/opt/Gaussian/g09-M05-par/g09/g09
 AtFile(1): aug-cc-pVTZ.gbs
 Initial command:
 /data/szalewicgrp/connornm/opt/Gaussian/g09-M05-par/g09/l1.exe "/scratch/local/Gau-42281.inp" -scrdir="/scratch/local/"
 Entering Link 1 = /data/szalewicgrp/connornm/opt/Gaussian/g09-M05-par/g09/l1.exe PID=     42282.
  
 Copyright (c) 1988,1990,1992,1993,1995,1998,2003,2009,2013,
            Gaussian, Inc.  All Rights Reserved.
  
 This is part of the Gaussian(R) 09 program.  It is based on
 the Gaussian(R) 03 system (copyright 2003, Gaussian, Inc.),
 the Gaussian(R) 98 system (copyright 1998, Gaussian, Inc.),
 the Gaussian(R) 94 system (copyright 1995, Gaussian, Inc.),
 the Gaussian 92(TM) system (copyright 1992, Gaussian, Inc.),
 the Gaussian 90(TM) system (copyright 1990, Gaussian, Inc.),
 the Gaussian 88(TM) system (copyright 1988, Gaussian, Inc.),
 the Gaussian 86(TM) system (copyright 1986, Carnegie Mellon
 University), and the Gaussian 82(TM) system (copyright 1983,
 Carnegie Mellon University). Gaussian is a federally registered
 trademark of Gaussian, Inc.
  
 This software contains proprietary and confidential information,
 including trade secrets, belonging to Gaussian, Inc.
  
 This software is provided under written license and may be
 used, copied, transmitted, or stored only in accord with that
 written license.
  
 The following legend is applicable only to US Government
 contracts under FAR:
  
                    RESTRICTED RIGHTS LEGEND
  
 Use, reproduction and disclosure by the US Government is
 subject to restrictions as set forth in subparagraphs (a)
 and (c) of the Commercial Computer Software - Restricted
 Rights clause in FAR 52.227-19.
  
 Gaussian, Inc.
 340 Quinnipiac St., Bldg. 40, Wallingford CT 06492
  
  
 ---------------------------------------------------------------
 Warning -- This program may not be used in any manner that
 competes with the business of Gaussian, Inc. or will provide
 assistance to any competitor of Gaussian, Inc.  The licensee
 of this program is prohibited from giving any competitor of
 Gaussian, Inc. access to this program.  By using this program,
 the user acknowledges that Gaussian, Inc. is engaged in the
 business of creating and licensing software in the field of
 computational chemistry and represents and warrants to the
 licensee that it is not a competitor of Gaussian, Inc. and that
 it will not use this program in any manner prohibited above.
 ---------------------------------------------------------------
  

 Cite this work as:
 Gaussian 09, Revision D.01,
 M. J. Frisch, G. W. Trucks, H. B. Schlegel, G. E. Scuseria, 
 M. A. Robb, J. R. Cheeseman, G. Scalmani, V. Barone, B. Mennucci, 
 G. A. Petersson, H. Nakatsuji, M. Caricato, X. Li, H. P. Hratchian, 
 A. F. Izmaylov, J. Bloino, G. Zheng, J. L. Sonnenberg, M. Hada, 
 M. Ehara, K. Toyota, R. Fukuda, J. Hasegawa, M. Ishida, T. Nakajima, 
 Y. Honda, O. Kitao, H. Nakai, T. Vreven, J. A. Montgomery, Jr., 
 J. E. Peralta, F. Ogliaro, M. Bearpark, J. J. Heyd, E. Brothers, 
 K. N. Kudin, V. N. Staroverov, T. Keith, R. Kobayashi, J. Normand, 
 K. Raghavachari, A. Rendell, J. C. Burant, S. S. Iyengar, J. Tomasi, 
 M. Cossi, N. Rega, J. M. Millam, M. Klene, J. E. Knox, J. B. Cross, 
 V. Bakken, C. Adamo, J. Jaramillo, R. Gomperts, R. E. Stratmann, 
 O. Yazyev, A. J. Austin, R. Cammi, C. Pomelli, J. W. Ochterski, 
 R. L. Martin, K. Morokuma, V. G. Zakrzewski, G. A. Voth, 
 P. Salvador, J. J. Dannenberg, S. Dapprich, A. D. Daniels, 
 O. Farkas, J. B. Foresman, J. V. Ortiz, J. Cioslowski, 
 and D. J. Fox, Gaussian, Inc., Wallingford CT, 2013.
 
 ******************************************
 Gaussian 09:  AS64L-G09RevD.01 24-Apr-2013
                 8-Dec-2018 
 ******************************************
 %Chk=CH400072
 %Mem=2GB
 %NProcShared=16
 Will use up to   16 processors via shared memory.
 ---------------------------------------------
 #T M05/Gen test Massage SCF=(tight,maxcyc=40)
 ---------------------------------------------
 -------
 M05 opt
 -------
 Symbolic Z-matrix:
 Charge =  0 Multiplicity = 1
 6                     0.        0.        0. 
 1                     1.09502   0.        0.16405 
 1                    -0.34435  -1.03456  -0.1926 
 1                    -0.50808   0.39651   0.90035 
 1                    -0.2426    0.63805  -0.87179 
 0                    -0.72459   0.       -0.10855 
 0                     0.22786   0.68458   0.12745 
 0                     0.3362   -0.26238  -0.59577 
 0                     0.16053  -0.42221   0.57688 
 6                     0.        0.        2.94308 
 1                     0.63248   0.07891   2.03769 
 1                     0.46208   0.57686   3.76752 
 1                    -1.00666   0.40718   2.7267 
 1                    -0.0879   -1.06295   3.2404 
 0                    -0.41852  -0.05222   3.54219 
 0                    -0.30577  -0.38171   2.39753 
 0                     0.66612  -0.26944   3.08626 
 0                     0.05816   0.70337   2.74634 
 
                    Distance matrix (angstroms):
                    1          2          3          4          5
     1  C    0.000000
     2  H    1.107242   0.000000
     3  H    1.107243   1.808119   0.000000
     4  H    1.107243   1.808119   1.808119   0.000000
     5  H    1.107243   1.808119   1.808119   1.808119   0.000000
     6  Bq   0.732679   1.839921   1.105427   1.105427   1.105427
     7  Bq   0.732679   1.105427   1.839921   1.105427   1.105427
     8  Bq   0.732679   1.105427   1.105427   1.839921   1.105427
     9  Bq   0.732679   1.105427   1.105427   1.105427   1.839921
    10  C    2.943078   2.986988   3.319844   2.141990   3.875461
    11  H    2.135050   1.931506   2.677349   1.641737   3.089253
    12  H    3.839334   3.703836   4.350808   3.032231   4.692922
    13  H    2.934976   3.339177   3.322593   1.893221   3.685956
    14  H    3.411417   3.463107   3.442680   2.789698   4.452802
    15  Bq   3.567208   3.702078   3.862529   2.681175   4.471088
    16  Bq   2.446909   2.663904   2.671420   1.699450   3.425259
    17  Bq   3.168800   2.965782   3.515302   2.569133   4.161184
    18  Bq   2.835573   2.870197   3.437988   1.955116   3.631195
                    6          7          8          9         10
     6  Bq   0.000000
     7  Bq   1.196459   0.000000
     8  Bq   1.196459   1.196459   0.000000
     9  Bq   1.196459   1.196459   1.196459   0.000000
    10  C    3.136475   2.906606   3.564454   2.408928   0.000000
    11  H    2.540517   2.044405   2.671961   1.614878   1.107243
    12  H    4.094494   3.649192   4.445049   3.356972   1.107242
    13  H    2.878200   2.890872   3.645606   2.583019   1.107243
    14  H    3.570813   3.583860   3.941698   2.750747   1.107242
    15  Bq   3.663918   3.552624   4.211470   3.043888   0.732679
    16  Bq   2.569354   2.564185   3.063697   1.879856   0.732679
    17  Bq   3.494779   3.139553   3.696785   2.564360   0.732679
    18  Bq   3.042667   2.624450   3.489936   2.446213   0.732679
                   11         12         13         14         15
    11  H    0.000000
    12  H    1.808119   0.000000
    13  H    1.808119   1.808119   0.000000
    14  H    1.808119   1.808119   1.808119   0.000000
    15  Bq   1.839921   1.105427   1.105427   1.105427   0.000000
    16  Bq   1.105427   1.839921   1.105427   1.105427   1.196459
    17  Bq   1.105427   1.105427   1.839921   1.105427   1.196459
    18  Bq   1.105427   1.105427   1.105427   1.839921   1.196459
                   16         17         18
    16  Bq   0.000000
    17  Bq   1.196459   0.000000
    18  Bq   1.196459   1.196459   0.000000
 Symmetry turned off by external request.
 Symmetry turned off:
 Cannot cope with ghost atoms or with translation vectors.
 Framework group  C1[X(C2H8)]
 NUMDOF-- NAT=    10 NAtoms=    18
 Deg. of freedom     0
 Rotational constants (GHZ):     76.6916056      6.6480639      6.6480639
 Warning:  center   6 has no basis functions!
 Warning:  center   7 has no basis functions!
 Warning:  center   8 has no basis functions!
 Warning:  center   9 has no basis functions!
 Warning:  center  15 has no basis functions!
 Warning:  center  16 has no basis functions!
 Warning:  center  17 has no basis functions!
 Warning:  center  18 has no basis functions!
   276 basis functions,   360 primitive gaussians,   310 cartesian basis functions
    10 alpha electrons       10 beta electrons
       nuclear repulsion energy        44.4457067150 Hartrees.
 IMHF & INEx in M05                  614413                  385587
 NAtoms=   18 NActive=   18 NUniq=   18 SFac= 1.00D+00 NAtFMM=   60 NAOKFM=F Big=F
 ExpMin= 2.53D-02 ExpMax= 8.24D+03 ExpMxC= 2.81D+02 IAcc=3 IRadAn=         5 AccDes= 0.00D+00
 Harris functional with IExCor= 1009 and IRadAn=       5 diagonalized for initial guess.
 HarFok:  IExCor= 1009 AccDes= 0.00D+00 IRadAn=         5 IDoV= 1 UseB2=F ITyADJ=14
 ICtDFT=  3500011 ScaDFX=  1.000000  1.000000  1.000000  1.000000
 FoFCou: FMM=F IPFlag=           0 FMFlag=      100000 FMFlg1=           0
         NFxFlg=           0 DoJE=T BraDBF=F KetDBF=T FulRan=T
         wScrn=  0.000000 ICntrl=     500 IOpCl=  0 I1Cent=   200000004 NGrid=           0
         NMat0=    1 NMatS0=      1 NMatT0=    0 NMatD0=    1 NMtDS0=    0 NMtDT0=    0
 Symmetry not used in FoFCou.
 SCF Done:  E(RM05) =  -81.7958952650     A.U. after    9 cycles
            NFock=  9  Conv=0.29D-08     -V/T= 2.0107

 **********************************************************************

            Population analysis using the SCF density.

 **********************************************************************

 Alpha  occ. eigenvalues --  -10.73811 -10.73800  -0.84613  -0.81251  -0.53137
 Alpha  occ. eigenvalues --   -0.50359  -0.48991  -0.48127  -0.47278  -0.43470
 Alpha virt. eigenvalues --   -0.00363   0.01679   0.02405   0.02481   0.04180
 Alpha virt. eigenvalues --    0.04369   0.04720   0.07231   0.07867   0.09278
 Alpha virt. eigenvalues --    0.09480   0.10142   0.10187   0.11308   0.12107
 Alpha virt. eigenvalues --    0.12422   0.14112   0.14249   0.14809   0.15511
 Alpha virt. eigenvalues --    0.17830   0.18628   0.23363   0.23636   0.25132
 Alpha virt. eigenvalues --    0.25323   0.25538   0.26949   0.27208   0.28078
 Alpha virt. eigenvalues --    0.29342   0.29362   0.29982   0.30330   0.30992
 Alpha virt. eigenvalues --    0.32061   0.32667   0.33785   0.34006   0.34350
 Alpha virt. eigenvalues --    0.35271   0.36212   0.36301   0.38682   0.38742
 Alpha virt. eigenvalues --    0.39225   0.39970   0.41366   0.42055   0.42761
 Alpha virt. eigenvalues --    0.43611   0.44163   0.47081   0.48242   0.48858
 Alpha virt. eigenvalues --    0.50817   0.53582   0.57354   0.59083   0.60235
 Alpha virt. eigenvalues --    0.65346   0.65642   0.65740   0.69568   0.69960
 Alpha virt. eigenvalues --    0.71023   0.71873   0.72363   0.73496   0.75249
 Alpha virt. eigenvalues --    0.75851   0.77356   0.78061   0.78321   0.79145
 Alpha virt. eigenvalues --    0.81154   0.82351   0.84216   0.85459   0.86530
 Alpha virt. eigenvalues --    0.86620   0.87823   0.87847   0.90300   0.91815
 Alpha virt. eigenvalues --    0.92232   0.94083   0.95612   0.96063   0.97422
 Alpha virt. eigenvalues --    0.97854   0.98760   0.99676   1.01577   1.02946
 Alpha virt. eigenvalues --    1.04955   1.05847   1.06941   1.07463   1.07577
 Alpha virt. eigenvalues --    1.11122   1.11811   1.13006   1.14089   1.15001
 Alpha virt. eigenvalues --    1.16340   1.16877   1.18803   1.23543   1.24114
 Alpha virt. eigenvalues --    1.25947   1.28646   1.33863   1.35509   1.37751
 Alpha virt. eigenvalues --    1.38175   1.41546   1.44047   1.44979   1.45254
 Alpha virt. eigenvalues --    1.46944   1.47113   1.49178   1.50215   1.52293
 Alpha virt. eigenvalues --    1.53329   1.54778   1.55158   1.57877   1.60061
 Alpha virt. eigenvalues --    1.61058   1.63199   1.65899   1.69485   1.70249
 Alpha virt. eigenvalues --    1.70577   1.71548   1.74307   1.74876   1.77234
 Alpha virt. eigenvalues --    1.78329   1.82592   1.83979   1.85398   1.87667
 Alpha virt. eigenvalues --    1.89452   1.92378   1.94894   1.98132   1.98517
 Alpha virt. eigenvalues --    2.01614   2.02103   2.02850   2.05905   2.07663
 Alpha virt. eigenvalues --    2.10654   2.12550   2.12867   2.16308   2.23814
 Alpha virt. eigenvalues --    2.56495   2.61992   2.75307   2.89285   2.91441
 Alpha virt. eigenvalues --    2.96559   2.97253   2.98204   3.01956   3.05970
 Alpha virt. eigenvalues --    3.22185   3.23045   3.23865   3.26223   3.27255
 Alpha virt. eigenvalues --    3.28728   3.30619   3.31808   3.32238   3.33449
 Alpha virt. eigenvalues --    3.36736   3.39696   3.41923   3.46142   3.52767
 Alpha virt. eigenvalues --    3.57938   3.58768   3.59282   3.61218   3.63146
 Alpha virt. eigenvalues --    3.64513   3.70404   3.71316   3.72260   3.73511
 Alpha virt. eigenvalues --    3.74998   3.76465   3.78360   3.79996   3.81299
 Alpha virt. eigenvalues --    3.82140   3.84064   3.85428   3.86205   3.92774
 Alpha virt. eigenvalues --    3.93132   3.95748   3.97833   4.02845   4.06665
 Alpha virt. eigenvalues --    4.17353   4.19777   4.21562   4.23611   4.29434
 Alpha virt. eigenvalues --    4.30706   4.33785   4.36745   4.40268   4.41029
 Alpha virt. eigenvalues --    4.44200   4.45479   4.46571   4.49067   4.51540
 Alpha virt. eigenvalues --    4.55006   4.56469   4.58375   4.66442   4.66978
 Alpha virt. eigenvalues --    4.71143   4.71932   4.80160   4.81399   4.84932
 Alpha virt. eigenvalues --    4.90721   4.93117   4.95658   5.01568   5.03837
 Alpha virt. eigenvalues --    5.14993   5.17141   5.17428   5.19679   5.21090
 Alpha virt. eigenvalues --    5.25695   5.32117   5.33840   5.35721   5.39154
 Alpha virt. eigenvalues --    5.41516   5.45525   5.60721   5.62491   5.64174
 Alpha virt. eigenvalues --    5.65494   5.77500   5.80372   6.06521   6.08332
 Alpha virt. eigenvalues --    6.10365   6.14714   6.22172   6.24293  17.41502
 Alpha virt. eigenvalues --   17.51250
          Condensed to atoms (all electrons):
 Mulliken charges:
               1
     1  C   -1.996682
     2  H    0.426921
     3  H    0.453242
     4  H    0.746924
     5  H    0.369906
     6  Bq   0.000000
     7  Bq   0.000000
     8  Bq   0.000000
     9  Bq   0.000000
    10  C   -2.004504
    11  H    0.753127
    12  H    0.386545
    13  H    0.422478
    14  H    0.442042
    15  Bq   0.000000
    16  Bq   0.000000
    17  Bq   0.000000
    18  Bq   0.000000
 Sum of Mulliken charges =  -0.00000
 Mulliken charges with hydrogens summed into heavy atoms:
               1
     1  C   -1.996682
     6  Bq   0.369906
     7  Bq   0.746924
     8  Bq   0.880163
     9  Bq   0.000000
    10  C   -2.004504
    15  Bq   0.864520
    16  Bq   0.000000
    17  Bq   0.753127
    18  Bq   0.386545
 Electronic spatial extent (au):  <R**2>=            383.0171
 Charge=             -0.0000 electrons
 Dipole moment (field-independent basis, Debye):
    X=              0.0022    Y=              0.0114    Z=              0.0068  Tot=              0.0135

 Test job not archived.
 1\1\GINC-CHIMERA-NODE54\SP\RM05\Gen\C2H8\CONNORNM\08-Dec-2018\0\\#T M0
 5/Gen test Massage SCF=(tight,maxcyc=40)\\M05 opt\\0,1\C,0,0.,0.,0.\H,
 0,1.09502283,0.,0.16404558\H,0,-0.34434617,-1.03456135,-0.1925993\H,0,
 -0.50808042,0.39650781,0.90034538\H,0,-0.24259624,0.63805354,-0.871791
 66\Bq,0,-0.72459267,0.,-0.10855137\Bq,0,0.22785891,0.68458442,0.127445
 78\Bq,0,0.33620427,-0.26237503,-0.59577174\Bq,0,0.16052949,-0.42220939
 ,0.57687733\C,0,0.,0.,2.94307794\H,0,0.63248062,0.07890956,2.0376899\H
 ,0,0.46208173,0.57685626,3.76751913\H,0,-1.00666299,0.40718297,2.72670
 417\H,0,-0.08789936,-1.06294878,3.24039855\Bq,0,-0.4185217,-0.05221561
 ,3.54218648\Bq,0,-0.30576626,-0.38171425,2.3975331\Bq,0,0.66612367,-0.
 26943894,3.08625563\Bq,0,0.0581643,0.7033688,2.74633653\\Version=AS64L
 -G09RevD.01\HF=-81.7958953\RMSD=2.873e-09\Dipole=0.0008501,0.0044818,0
 .0026871\Quadrupole=0.255388,0.2358584,-0.4912463,-0.0021083,-0.019057
 6,0.0229011\PG=C01 [X(C2H8)]\\@


 Everywhere is walking distance if you have the time.
                                    -- Steven Wright
 Job cpu time:       0 days  0 hours 16 minutes 35.7 seconds.
 File lengths (MBytes):  RWF=     41 Int=      0 D2E=      0 Chk=      4 Scr=      1
 Normal termination of Gaussian 09 at Sat Dec  8 13:49:41 2018.
