 Entering Gaussian System, Link 0=/data/szalewicgrp/connornm/opt/Gaussian/g09-M05-par/g09/g09
 AtFile(1): aug-cc-pVTZ.gbs
 Initial command:
 /data/szalewicgrp/connornm/opt/Gaussian/g09-M05-par/g09/l1.exe "/scratch/local/Gau-15184.inp" -scrdir="/scratch/local/"
 Entering Link 1 = /data/szalewicgrp/connornm/opt/Gaussian/g09-M05-par/g09/l1.exe PID=     15185.
  
 Copyright (c) 1988,1990,1992,1993,1995,1998,2003,2009,2013,
            Gaussian, Inc.  All Rights Reserved.
  
 This is part of the Gaussian(R) 09 program.  It is based on
 the Gaussian(R) 03 system (copyright 2003, Gaussian, Inc.),
 the Gaussian(R) 98 system (copyright 1998, Gaussian, Inc.),
 the Gaussian(R) 94 system (copyright 1995, Gaussian, Inc.),
 the Gaussian 92(TM) system (copyright 1992, Gaussian, Inc.),
 the Gaussian 90(TM) system (copyright 1990, Gaussian, Inc.),
 the Gaussian 88(TM) system (copyright 1988, Gaussian, Inc.),
 the Gaussian 86(TM) system (copyright 1986, Carnegie Mellon
 University), and the Gaussian 82(TM) system (copyright 1983,
 Carnegie Mellon University). Gaussian is a federally registered
 trademark of Gaussian, Inc.
  
 This software contains proprietary and confidential information,
 including trade secrets, belonging to Gaussian, Inc.
  
 This software is provided under written license and may be
 used, copied, transmitted, or stored only in accord with that
 written license.
  
 The following legend is applicable only to US Government
 contracts under FAR:
  
                    RESTRICTED RIGHTS LEGEND
  
 Use, reproduction and disclosure by the US Government is
 subject to restrictions as set forth in subparagraphs (a)
 and (c) of the Commercial Computer Software - Restricted
 Rights clause in FAR 52.227-19.
  
 Gaussian, Inc.
 340 Quinnipiac St., Bldg. 40, Wallingford CT 06492
  
  
 ---------------------------------------------------------------
 Warning -- This program may not be used in any manner that
 competes with the business of Gaussian, Inc. or will provide
 assistance to any competitor of Gaussian, Inc.  The licensee
 of this program is prohibited from giving any competitor of
 Gaussian, Inc. access to this program.  By using this program,
 the user acknowledges that Gaussian, Inc. is engaged in the
 business of creating and licensing software in the field of
 computational chemistry and represents and warrants to the
 licensee that it is not a competitor of Gaussian, Inc. and that
 it will not use this program in any manner prohibited above.
 ---------------------------------------------------------------
  

 Cite this work as:
 Gaussian 09, Revision D.01,
 M. J. Frisch, G. W. Trucks, H. B. Schlegel, G. E. Scuseria, 
 M. A. Robb, J. R. Cheeseman, G. Scalmani, V. Barone, B. Mennucci, 
 G. A. Petersson, H. Nakatsuji, M. Caricato, X. Li, H. P. Hratchian, 
 A. F. Izmaylov, J. Bloino, G. Zheng, J. L. Sonnenberg, M. Hada, 
 M. Ehara, K. Toyota, R. Fukuda, J. Hasegawa, M. Ishida, T. Nakajima, 
 Y. Honda, O. Kitao, H. Nakai, T. Vreven, J. A. Montgomery, Jr., 
 J. E. Peralta, F. Ogliaro, M. Bearpark, J. J. Heyd, E. Brothers, 
 K. N. Kudin, V. N. Staroverov, T. Keith, R. Kobayashi, J. Normand, 
 K. Raghavachari, A. Rendell, J. C. Burant, S. S. Iyengar, J. Tomasi, 
 M. Cossi, N. Rega, J. M. Millam, M. Klene, J. E. Knox, J. B. Cross, 
 V. Bakken, C. Adamo, J. Jaramillo, R. Gomperts, R. E. Stratmann, 
 O. Yazyev, A. J. Austin, R. Cammi, C. Pomelli, J. W. Ochterski, 
 R. L. Martin, K. Morokuma, V. G. Zakrzewski, G. A. Voth, 
 P. Salvador, J. J. Dannenberg, S. Dapprich, A. D. Daniels, 
 O. Farkas, J. B. Foresman, J. V. Ortiz, J. Cioslowski, 
 and D. J. Fox, Gaussian, Inc., Wallingford CT, 2013.
 
 ******************************************
 Gaussian 09:  AS64L-G09RevD.01 24-Apr-2013
                 8-Dec-2018 
 ******************************************
 %Chk=CH400048
 %Mem=2GB
 %NProcShared=16
 Will use up to   16 processors via shared memory.
 ---------------------------------------------
 #T M05/Gen test Massage SCF=(tight,maxcyc=40)
 ---------------------------------------------
 -------
 M05 opt
 -------
 Symbolic Z-matrix:
 Charge =  0 Multiplicity = 1
 6                     0.        0.        0. 
 1                     0.97297   0.       -0.52851 
 1                    -0.60172   0.86719  -0.33451 
 1                    -0.54409  -0.9369   -0.22842 
 1                     0.17285   0.06971   1.09144 
 0                    -0.64383   0.        0.34972 
 0                     0.39817  -0.57383   0.22135 
 0                     0.36003   0.61996   0.15115 
 0                    -0.11438  -0.04613  -0.72222 
 6                     0.        0.        4.16806 
 1                     1.07963  -0.00353   4.41378 
 1                    -0.53054  -0.71557   4.82569 
 1                    -0.41026   1.01683   4.32209 
 1                    -0.13883  -0.29774   3.11067 
 0                    -0.7144    0.00234   4.00546 
 0                     0.35106   0.4735    3.73289 
 0                     0.27147  -0.67285   4.06613 
 0                     0.09187   0.19702   4.86774 
 
                    Distance matrix (angstroms):
                    1          2          3          4          5
     1  C    0.000000
     2  H    1.107243   0.000000
     3  H    1.107243   1.808119   0.000000
     4  H    1.107243   1.808119   1.808119   0.000000
     5  H    1.107243   1.808119   1.808119   1.808119   0.000000
     6  Bq   0.732679   1.839921   1.105427   1.105427   1.105427
     7  Bq   0.732679   1.105427   1.839921   1.105427   1.105427
     8  Bq   0.732679   1.105427   1.105427   1.839921   1.105427
     9  Bq   0.732679   1.105427   1.105427   1.105427   1.839921
    10  C    4.168055   4.796291   4.624632   4.527999   3.082252
    11  H    4.543903   4.943443   5.111886   5.005759   3.444636
    12  H    4.907214   5.607137   5.397948   5.058964   3.880204
    13  H    4.459002   5.145441   4.662938   4.953994   3.416741
    14  H    3.127968   3.816855   3.666144   3.423778   2.075919
    15  Bq   4.068668   4.837777   4.426738   4.340143   3.046840
    16  Bq   3.779144   4.332497   4.196021   4.299127   2.678070
    17  Bq   4.130356   4.696335   4.743403   4.379269   3.067554
    18  Bq   4.872594   5.471263   5.290906   5.259377   3.779312
                    6          7          8          9         10
     6  Bq   0.000000
     7  Bq   1.196459   0.000000
     8  Bq   1.196459   1.196459   0.000000
     9  Bq   1.196459   1.196459   1.196459   0.000000
    10  C    3.872230   4.008027   4.080383   4.891834   0.000000
    11  H    4.414390   4.285564   4.367675   5.273139   1.107242
    12  H    4.534214   4.699198   4.942475   5.603627   1.107243
    13  H    4.107088   4.472111   4.260000   5.163575   1.107242
    14  H    2.822496   2.951736   3.138440   3.841221   1.107242
    15  Bq   3.656414   3.986129   4.048651   4.765851   0.732679
    16  Bq   3.558066   3.664700   3.584749   4.509402   0.732679
    17  Bq   3.886152   3.848138   4.123870   4.844585   0.732679
    18  Bq   4.581763   4.719848   4.743108   5.599052   0.732679
                   11         12         13         14         15
    11  H    0.000000
    12  H    1.808119   0.000000
    13  H    1.808119   1.808119   0.000000
    14  H    1.808119   1.808119   1.808119   0.000000
    15  Bq   1.839921   1.105427   1.105427   1.105427   0.000000
    16  Bq   1.105427   1.839921   1.105427   1.105427   1.196459
    17  Bq   1.105427   1.105427   1.839921   1.105427   1.196459
    18  Bq   1.105427   1.105427   1.105427   1.839921   1.196459
                   16         17         18
    16  Bq   0.000000
    17  Bq   1.196459   0.000000
    18  Bq   1.196459   1.196459   0.000000
 Symmetry turned off by external request.
 Symmetry turned off:
 Cannot cope with ghost atoms or with translation vectors.
 Framework group  C1[X(C2H8)]
 NUMDOF-- NAT=    10 NAtoms=    18
 Deg. of freedom     0
 Rotational constants (GHZ):     76.6916057      3.4652236      3.4652236
 Warning:  center   6 has no basis functions!
 Warning:  center   7 has no basis functions!
 Warning:  center   8 has no basis functions!
 Warning:  center   9 has no basis functions!
 Warning:  center  15 has no basis functions!
 Warning:  center  16 has no basis functions!
 Warning:  center  17 has no basis functions!
 Warning:  center  18 has no basis functions!
   276 basis functions,   360 primitive gaussians,   310 cartesian basis functions
    10 alpha electrons       10 beta electrons
       nuclear repulsion energy        39.2494161668 Hartrees.
 IMHF & INEx in M05                  614413                  385587
 NAtoms=   18 NActive=   18 NUniq=   18 SFac= 1.00D+00 NAtFMM=   60 NAOKFM=F Big=F
 ExpMin= 2.53D-02 ExpMax= 8.24D+03 ExpMxC= 2.81D+02 IAcc=3 IRadAn=         5 AccDes= 0.00D+00
 Harris functional with IExCor= 1009 and IRadAn=       5 diagonalized for initial guess.
 HarFok:  IExCor= 1009 AccDes= 0.00D+00 IRadAn=         5 IDoV= 1 UseB2=F ITyADJ=14
 ICtDFT=  3500011 ScaDFX=  1.000000  1.000000  1.000000  1.000000
 FoFCou: FMM=F IPFlag=           0 FMFlag=      100000 FMFlg1=           0
         NFxFlg=           0 DoJE=T BraDBF=F KetDBF=T FulRan=T
         wScrn=  0.000000 ICntrl=     500 IOpCl=  0 I1Cent=   200000004 NGrid=           0
         NMat0=    1 NMatS0=      1 NMatT0=    0 NMatD0=    1 NMtDS0=    0 NMtDT0=    0
 Symmetry not used in FoFCou.
 SCF Done:  E(RM05) =  -81.8228708867     A.U. after    8 cycles
            NFock=  8  Conv=0.67D-08     -V/T= 2.0126

 **********************************************************************

            Population analysis using the SCF density.

 **********************************************************************

 Alpha  occ. eigenvalues --  -10.74521 -10.74487  -0.83001  -0.82614  -0.50333
 Alpha  occ. eigenvalues --   -0.48815  -0.48809  -0.48719  -0.48715  -0.47328
 Alpha virt. eigenvalues --   -0.00477   0.01254   0.02330   0.02440   0.03952
 Alpha virt. eigenvalues --    0.04136   0.04497   0.06449   0.07851   0.08557
 Alpha virt. eigenvalues --    0.08645   0.09747   0.10785   0.11320   0.11652
 Alpha virt. eigenvalues --    0.12990   0.14539   0.14884   0.14951   0.15337
 Alpha virt. eigenvalues --    0.15574   0.16130   0.17170   0.21000   0.21949
 Alpha virt. eigenvalues --    0.24236   0.25033   0.25938   0.27739   0.28285
 Alpha virt. eigenvalues --    0.28419   0.28516   0.29112   0.29745   0.30189
 Alpha virt. eigenvalues --    0.30410   0.31218   0.32322   0.32464   0.33608
 Alpha virt. eigenvalues --    0.33934   0.34024   0.34315   0.35275   0.35505
 Alpha virt. eigenvalues --    0.36887   0.37354   0.38766   0.40353   0.41219
 Alpha virt. eigenvalues --    0.41823   0.43102   0.43911   0.44710   0.45864
 Alpha virt. eigenvalues --    0.46980   0.51793   0.54978   0.57637   0.59074
 Alpha virt. eigenvalues --    0.59580   0.62481   0.66078   0.66949   0.69225
 Alpha virt. eigenvalues --    0.69747   0.70570   0.72170   0.72707   0.73769
 Alpha virt. eigenvalues --    0.74943   0.76997   0.77964   0.78516   0.79579
 Alpha virt. eigenvalues --    0.81063   0.81420   0.82473   0.84700   0.85193
 Alpha virt. eigenvalues --    0.85596   0.85872   0.86536   0.88467   0.89048
 Alpha virt. eigenvalues --    0.90351   0.90710   0.91162   0.93724   0.94331
 Alpha virt. eigenvalues --    0.95340   0.95524   0.96564   0.97253   0.97943
 Alpha virt. eigenvalues --    0.98491   0.99262   1.01054   1.02227   1.02857
 Alpha virt. eigenvalues --    1.04453   1.05650   1.05959   1.07769   1.08658
 Alpha virt. eigenvalues --    1.10765   1.11202   1.12964   1.13545   1.15197
 Alpha virt. eigenvalues --    1.16240   1.18030   1.20041   1.21660   1.26013
 Alpha virt. eigenvalues --    1.29866   1.36867   1.40533   1.42868   1.43792
 Alpha virt. eigenvalues --    1.44712   1.44943   1.45291   1.46537   1.47068
 Alpha virt. eigenvalues --    1.47454   1.48664   1.50143   1.50513   1.51567
 Alpha virt. eigenvalues --    1.53524   1.55121   1.58854   1.59182   1.60602
 Alpha virt. eigenvalues --    1.63697   1.66064   1.67307   1.68839   1.71040
 Alpha virt. eigenvalues --    1.72773   1.74885   1.75200   1.76424   1.78890
 Alpha virt. eigenvalues --    1.81854   1.82473   1.86340   1.87301   1.96346
 Alpha virt. eigenvalues --    1.97781   1.99553   2.00895   2.01890   2.02854
 Alpha virt. eigenvalues --    2.03958   2.07738   2.09154   2.16723   2.24607
 Alpha virt. eigenvalues --    2.42485   2.63707   2.73612   2.78042   2.87158
 Alpha virt. eigenvalues --    2.87818   2.90366   2.92656   2.95118   3.01784
 Alpha virt. eigenvalues --    3.17655   3.19803   3.20931   3.21623   3.21886
 Alpha virt. eigenvalues --    3.22870   3.23768   3.24835   3.25555   3.26572
 Alpha virt. eigenvalues --    3.26950   3.28533   3.30408   3.33659   3.40255
 Alpha virt. eigenvalues --    3.42095   3.58097   3.58833   3.59635   3.60377
 Alpha virt. eigenvalues --    3.68313   3.69951   3.71049   3.71427   3.71901
 Alpha virt. eigenvalues --    3.71921   3.72901   3.74479   3.74873   3.76618
 Alpha virt. eigenvalues --    3.77775   3.79388   3.80658   3.82062   3.82658
 Alpha virt. eigenvalues --    3.83905   3.84638   3.87659   3.89252   3.91126
 Alpha virt. eigenvalues --    4.18472   4.18564   4.19248   4.19656   4.19957
 Alpha virt. eigenvalues --    4.21993   4.33799   4.34402   4.34877   4.36009
 Alpha virt. eigenvalues --    4.36460   4.37708   4.39567   4.42323   4.44547
 Alpha virt. eigenvalues --    4.48095   4.49156   4.49966   4.51696   4.53159
 Alpha virt. eigenvalues --    4.54223   4.56290   4.76388   4.78555   4.78694
 Alpha virt. eigenvalues --    4.79826   4.82982   4.83507   4.85415   4.97734
 Alpha virt. eigenvalues --    5.13855   5.14040   5.14909   5.15989   5.16342
 Alpha virt. eigenvalues --    5.16567   5.23487   5.25477   5.31702   5.32321
 Alpha virt. eigenvalues --    5.33090   5.34250   5.57512   5.57582   5.58120
 Alpha virt. eigenvalues --    5.59073   5.64532   5.71192   6.03859   6.04963
 Alpha virt. eigenvalues --    6.07239   6.09207   6.11497   6.13567  16.88836
 Alpha virt. eigenvalues --   17.19350
          Condensed to atoms (all electrons):
 Mulliken charges:
               1
     1  C   -1.887597
     2  H    0.407547
     3  H    0.413135
     4  H    0.409236
     5  H    0.655752
     6  Bq   0.000000
     7  Bq   0.000000
     8  Bq   0.000000
     9  Bq   0.000000
    10  C   -1.892313
    11  H    0.428040
    12  H    0.413516
    13  H    0.424139
    14  H    0.628544
    15  Bq   0.000000
    16  Bq   0.000000
    17  Bq   0.000000
    18  Bq   0.000000
 Sum of Mulliken charges =  -0.00000
 Mulliken charges with hydrogens summed into heavy atoms:
               1
     1  C   -1.887597
     6  Bq   0.655752
     7  Bq   0.409236
     8  Bq   0.407547
     9  Bq   0.413135
    10  C   -1.892313
    15  Bq   0.413516
    16  Bq   0.000000
    17  Bq   1.056584
    18  Bq   0.424139
 Electronic spatial extent (au):  <R**2>=            693.4705
 Charge=             -0.0000 electrons
 Dipole moment (field-independent basis, Debye):
    X=             -0.0008    Y=              0.0031    Z=              0.0081  Tot=              0.0087

 Test job not archived.
 1\1\GINC-CHIMERA-NODE31\SP\RM05\Gen\C2H8\CONNORNM\08-Dec-2018\0\\#T M0
 5/Gen test Massage SCF=(tight,maxcyc=40)\\M05 opt\\0,1\C,0,0.,0.,0.\H,
 0,0.97296508,0.,-0.52851198\H,0,-0.6017246,0.86718704,-0.33451472\H,0,
 -0.54409245,-0.93689656,-0.22841672\H,0,0.17285197,0.06970952,1.091443
 42\Bq,0,-0.64382526,0.,0.34972413\Bq,0,0.39816999,-0.57383038,0.221353
 3\Bq,0,0.36003396,0.6199582,0.15114669\Bq,0,-0.11437869,-0.04612781,-0
 .72222412\C,0,0.,0.,4.16805521\H,0,1.07962644,-0.00352902,4.41377914\H
 ,0,-0.53053784,-0.71556846,4.8256853\H,0,-0.41025564,1.01683356,4.3220
 8693\H,0,-0.13883295,-0.29773609,3.11066948\Bq,0,-0.71440465,0.0023352
 ,4.00545609\Bq,0,0.35106467,0.47350214,3.73289174\Bq,0,0.27147218,-0.6
 7285368,4.06613016\Bq,0,0.0918678,0.19701634,4.86774286\\Version=AS64L
 -G09RevD.01\HF=-81.8228709\RMSD=6.724e-09\Dipole=-0.0003198,0.0012216,
 0.0031731\Quadrupole=0.0113523,0.0114248,-0.0227771,0.0004188,-0.00749
 19,-0.0022529\PG=C01 [X(C2H8)]\\@


 THE LENGTH OF A MEETING IS PROPORTIONAL TO THE
 SQUARE OF THE PARTICIPANTS.
 Job cpu time:       0 days  0 hours 12 minutes 41.0 seconds.
 File lengths (MBytes):  RWF=     41 Int=      0 D2E=      0 Chk=      4 Scr=      1
 Normal termination of Gaussian 09 at Sat Dec  8 13:48:40 2018.
