 Entering Gaussian System, Link 0=/data/szalewicgrp/connornm/opt/Gaussian/g09-M05-par/g09/g09
 AtFile(1): aug-cc-pVTZ.gbs
 Initial command:
 /data/szalewicgrp/connornm/opt/Gaussian/g09-M05-par/g09/l1.exe "/scratch/local/Gau-35726.inp" -scrdir="/scratch/local/"
 Entering Link 1 = /data/szalewicgrp/connornm/opt/Gaussian/g09-M05-par/g09/l1.exe PID=     35727.
  
 Copyright (c) 1988,1990,1992,1993,1995,1998,2003,2009,2013,
            Gaussian, Inc.  All Rights Reserved.
  
 This is part of the Gaussian(R) 09 program.  It is based on
 the Gaussian(R) 03 system (copyright 2003, Gaussian, Inc.),
 the Gaussian(R) 98 system (copyright 1998, Gaussian, Inc.),
 the Gaussian(R) 94 system (copyright 1995, Gaussian, Inc.),
 the Gaussian 92(TM) system (copyright 1992, Gaussian, Inc.),
 the Gaussian 90(TM) system (copyright 1990, Gaussian, Inc.),
 the Gaussian 88(TM) system (copyright 1988, Gaussian, Inc.),
 the Gaussian 86(TM) system (copyright 1986, Carnegie Mellon
 University), and the Gaussian 82(TM) system (copyright 1983,
 Carnegie Mellon University). Gaussian is a federally registered
 trademark of Gaussian, Inc.
  
 This software contains proprietary and confidential information,
 including trade secrets, belonging to Gaussian, Inc.
  
 This software is provided under written license and may be
 used, copied, transmitted, or stored only in accord with that
 written license.
  
 The following legend is applicable only to US Government
 contracts under FAR:
  
                    RESTRICTED RIGHTS LEGEND
  
 Use, reproduction and disclosure by the US Government is
 subject to restrictions as set forth in subparagraphs (a)
 and (c) of the Commercial Computer Software - Restricted
 Rights clause in FAR 52.227-19.
  
 Gaussian, Inc.
 340 Quinnipiac St., Bldg. 40, Wallingford CT 06492
  
  
 ---------------------------------------------------------------
 Warning -- This program may not be used in any manner that
 competes with the business of Gaussian, Inc. or will provide
 assistance to any competitor of Gaussian, Inc.  The licensee
 of this program is prohibited from giving any competitor of
 Gaussian, Inc. access to this program.  By using this program,
 the user acknowledges that Gaussian, Inc. is engaged in the
 business of creating and licensing software in the field of
 computational chemistry and represents and warrants to the
 licensee that it is not a competitor of Gaussian, Inc. and that
 it will not use this program in any manner prohibited above.
 ---------------------------------------------------------------
  

 Cite this work as:
 Gaussian 09, Revision D.01,
 M. J. Frisch, G. W. Trucks, H. B. Schlegel, G. E. Scuseria, 
 M. A. Robb, J. R. Cheeseman, G. Scalmani, V. Barone, B. Mennucci, 
 G. A. Petersson, H. Nakatsuji, M. Caricato, X. Li, H. P. Hratchian, 
 A. F. Izmaylov, J. Bloino, G. Zheng, J. L. Sonnenberg, M. Hada, 
 M. Ehara, K. Toyota, R. Fukuda, J. Hasegawa, M. Ishida, T. Nakajima, 
 Y. Honda, O. Kitao, H. Nakai, T. Vreven, J. A. Montgomery, Jr., 
 J. E. Peralta, F. Ogliaro, M. Bearpark, J. J. Heyd, E. Brothers, 
 K. N. Kudin, V. N. Staroverov, T. Keith, R. Kobayashi, J. Normand, 
 K. Raghavachari, A. Rendell, J. C. Burant, S. S. Iyengar, J. Tomasi, 
 M. Cossi, N. Rega, J. M. Millam, M. Klene, J. E. Knox, J. B. Cross, 
 V. Bakken, C. Adamo, J. Jaramillo, R. Gomperts, R. E. Stratmann, 
 O. Yazyev, A. J. Austin, R. Cammi, C. Pomelli, J. W. Ochterski, 
 R. L. Martin, K. Morokuma, V. G. Zakrzewski, G. A. Voth, 
 P. Salvador, J. J. Dannenberg, S. Dapprich, A. D. Daniels, 
 O. Farkas, J. B. Foresman, J. V. Ortiz, J. Cioslowski, 
 and D. J. Fox, Gaussian, Inc., Wallingford CT, 2013.
 
 ******************************************
 Gaussian 09:  AS64L-G09RevD.01 24-Apr-2013
                 5-Dec-2018 
 ******************************************
 %Chk=CH400290
 %Mem=2GB
 %NProcShared=16
 Will use up to   16 processors via shared memory.
 -----------------------------------------------------------
 #T M05/Gen test Massage Symmetry=None SCF=(tight,maxcyc=60)
 -----------------------------------------------------------
 -------
 M05 opt
 -------
 Symbolic Z-matrix:
 Charge =  0 Multiplicity = 1
 6                     0.        0.        0. 
 1                     0.92018   0.        0.61583 
 1                    -0.4106    1.02708  -0.05007 
 1                     0.23992  -0.3518   -1.02209 
 1                    -0.7495   -0.67528   0.45632 
 0                    -0.6089    0.       -0.40751 
 0                     0.2717   -0.67963   0.03313 
 0                    -0.15876   0.23279   0.67633 
 0                     0.49596   0.44684  -0.30196 
 6                     0.        0.        3.76321 
 1                     0.28556  -1.03066   4.04988 
 1                     0.87295   0.51408   3.31637 
 1                    -0.82421  -0.03724   3.02478 
 1                    -0.3343    0.55382   4.66183 
 0                    -0.18896   0.68201   3.57352 
 0                    -0.57764  -0.34017   4.0589 
 0                     0.54539   0.02464   4.25185 
 0                     0.22121  -0.36647   3.16858 
 
                    Distance matrix (angstroms):
                    1          2          3          4          5
     1  C    0.000000
     2  H    1.107242   0.000000
     3  H    1.107243   1.808119   0.000000
     4  H    1.107243   1.808119   1.808119   0.000000
     5  H    1.107243   1.808119   1.808119   1.808119   0.000000
     6  Bq   0.732679   1.839921   1.105427   1.105427   1.105427
     7  Bq   0.732679   1.105427   1.839921   1.105427   1.105427
     8  Bq   0.732679   1.105427   1.105427   1.839921   1.105427
     9  Bq   0.732679   1.105427   1.105427   1.105427   1.839921
    10  C    3.763214   3.279138   3.970465   4.804209   3.457352
    11  H    4.188712   3.641109   4.639878   5.117397   3.756498
    12  H    3.467650   2.749434   3.639166   4.469075   3.496679
    13  H    3.135283   2.974443   3.280018   4.196243   2.647575
    14  H    4.706501   4.272066   4.736222   5.784186   4.401067
    15  Bq   3.642927   3.231605   3.646727   4.729940   3.445777
    16  Bq   4.113885   3.770133   4.333692   5.146355   3.622208
    17  Bq   4.286753   3.655362   4.519431   5.296167   4.070950
    18  Bq   3.197368   2.671967   3.563829   4.190739   2.897242
                    6          7          8          9         10
     6  Bq   0.000000
     7  Bq   1.196459   0.000000
     8  Bq   1.196459   1.196459   0.000000
     9  Bq   1.196459   1.196459   1.196459   0.000000
    10  C    4.214932   3.801216   3.099717   4.119616   0.000000
    11  H    4.661606   4.032079   3.629676   4.600622   1.107243
    12  H    4.040712   3.544866   2.848391   3.638528   1.107243
    13  H    3.439234   3.250177   2.455799   3.611694   1.107242
    14  H    5.106888   4.828407   4.002262   5.033880   1.107243
    15  Bq   4.060798   3.821080   2.931969   3.942557   0.732679
    16  Bq   4.479449   4.128369   3.456230   4.559502   0.732679
    17  Bq   4.800264   4.285844   3.650132   4.573598   0.732679
    18  Bq   3.689417   3.151458   2.591297   3.575137   0.732679
                   11         12         13         14         15
    11  H    0.000000
    12  H    1.808119   0.000000
    13  H    1.808119   1.808119   0.000000
    14  H    1.808119   1.808119   1.808119   0.000000
    15  Bq   1.839921   1.105427   1.105427   1.105427   0.000000
    16  Bq   1.105427   1.839921   1.105427   1.105427   1.196459
    17  Bq   1.105427   1.105427   1.839921   1.105427   1.196459
    18  Bq   1.105427   1.105427   1.105427   1.839921   1.196459
                   16         17         18
    16  Bq   0.000000
    17  Bq   1.196459   0.000000
    18  Bq   1.196459   1.196459   0.000000
 Symmetry turned off by external request.
 Rotational constants (GHZ):     76.6916054      4.2077889      4.2077889
 Warning:  center   6 has no basis functions!
 Warning:  center   7 has no basis functions!
 Warning:  center   8 has no basis functions!
 Warning:  center   9 has no basis functions!
 Warning:  center  15 has no basis functions!
 Warning:  center  16 has no basis functions!
 Warning:  center  17 has no basis functions!
 Warning:  center  18 has no basis functions!
   276 basis functions,   360 primitive gaussians,   310 cartesian basis functions
    10 alpha electrons       10 beta electrons
       nuclear repulsion energy        40.4465337875 Hartrees.
 IMHF & INEx in M05                  614413                  385587
 NAtoms=   18 NActive=   18 NUniq=   18 SFac= 1.00D+00 NAtFMM=   60 NAOKFM=F Big=F
 ExpMin= 2.53D-02 ExpMax= 8.24D+03 ExpMxC= 2.81D+02 IAcc=3 IRadAn=         5 AccDes= 0.00D+00
 Harris functional with IExCor= 1009 and IRadAn=       5 diagonalized for initial guess.
 HarFok:  IExCor= 1009 AccDes= 0.00D+00 IRadAn=         5 IDoV= 1 UseB2=F ITyADJ=14
 ICtDFT=  3500011 ScaDFX=  1.000000  1.000000  1.000000  1.000000
 FoFCou: FMM=F IPFlag=           0 FMFlag=      100000 FMFlg1=           0
         NFxFlg=           0 DoJE=T BraDBF=F KetDBF=T FulRan=T
         wScrn=  0.000000 ICntrl=     500 IOpCl=  0 I1Cent=   200000004 NGrid=           0
         NMat0=    1 NMatS0=      1 NMatT0=    0 NMatD0=    1 NMtDS0=    0 NMtDT0=    0
 Symmetry not used in FoFCou.
 SCF Done:  E(RM05) =  -89.8510691519     A.U. after   11 cycles
            NFock= 11  Conv=0.79D-08     -V/T= 2.0281

 **********************************************************************

            Population analysis using the SCF density.

 **********************************************************************

 Alpha  occ. eigenvalues --  -11.79384 -11.79357  -0.95642  -0.95180  -0.66438
 Alpha  occ. eigenvalues --   -0.66202  -0.65816  -0.65680  -0.65311  -0.65078
 Alpha virt. eigenvalues --   -0.09350  -0.05459  -0.03118  -0.02738  -0.00770
 Alpha virt. eigenvalues --   -0.00143   0.00314   0.00650   0.00712   0.01190
 Alpha virt. eigenvalues --    0.01966   0.02811   0.03395   0.03978   0.06606
 Alpha virt. eigenvalues --    0.06667   0.07340   0.07659   0.08056   0.08254
 Alpha virt. eigenvalues --    0.08807   0.09878   0.10055   0.10687   0.12747
 Alpha virt. eigenvalues --    0.17233   0.17536   0.18417   0.18722   0.19687
 Alpha virt. eigenvalues --    0.19806   0.20274   0.20864   0.21029   0.22102
 Alpha virt. eigenvalues --    0.23028   0.23494   0.23778   0.24570   0.25328
 Alpha virt. eigenvalues --    0.25796   0.26526   0.26705   0.27008   0.27686
 Alpha virt. eigenvalues --    0.27938   0.28107   0.31014   0.31510   0.32229
 Alpha virt. eigenvalues --    0.35374   0.35769   0.36688   0.37553   0.39151
 Alpha virt. eigenvalues --    0.39501   0.40767   0.41965   0.45310   0.46649
 Alpha virt. eigenvalues --    0.47017   0.49159   0.50749   0.51686   0.54006
 Alpha virt. eigenvalues --    0.58629   0.59054   0.59133   0.59636   0.59957
 Alpha virt. eigenvalues --    0.61277   0.61701   0.63758   0.65300   0.65501
 Alpha virt. eigenvalues --    0.66096   0.67362   0.68472   0.68822   0.70568
 Alpha virt. eigenvalues --    0.71055   0.73702   0.73964   0.75005   0.76070
 Alpha virt. eigenvalues --    0.76679   0.77252   0.78205   0.79260   0.79687
 Alpha virt. eigenvalues --    0.80079   0.80506   0.81145   0.81725   0.82487
 Alpha virt. eigenvalues --    0.83380   0.86116   0.86788   0.88557   0.89470
 Alpha virt. eigenvalues --    0.90241   0.91292   0.92156   0.92410   0.93724
 Alpha virt. eigenvalues --    0.94517   0.95739   0.97301   0.97917   0.98666
 Alpha virt. eigenvalues --    1.01868   1.03888   1.06806   1.07513   1.12936
 Alpha virt. eigenvalues --    1.15167   1.17374   1.18979   1.28018   1.28978
 Alpha virt. eigenvalues --    1.29521   1.29689   1.30332   1.30821   1.31378
 Alpha virt. eigenvalues --    1.32219   1.33343   1.34454   1.35251   1.37762
 Alpha virt. eigenvalues --    1.40241   1.42434   1.43222   1.45473   1.46542
 Alpha virt. eigenvalues --    1.48314   1.50298   1.50731   1.52136   1.52543
 Alpha virt. eigenvalues --    1.53823   1.54550   1.56733   1.57399   1.60449
 Alpha virt. eigenvalues --    1.63664   1.64775   1.65368   1.69899   1.76877
 Alpha virt. eigenvalues --    1.79163   1.80661   1.80835   1.82347   1.83493
 Alpha virt. eigenvalues --    1.88173   1.94375   1.95867   1.97535   1.98737
 Alpha virt. eigenvalues --    2.17529   2.20439   2.37056   2.43274   2.54999
 Alpha virt. eigenvalues --    2.56615   2.58652   2.59539   2.61409   2.63590
 Alpha virt. eigenvalues --    3.01265   3.02694   3.03817   3.04857   3.05091
 Alpha virt. eigenvalues --    3.06189   3.06774   3.07217   3.08077   3.09415
 Alpha virt. eigenvalues --    3.09757   3.13051   3.13349   3.14909   3.17688
 Alpha virt. eigenvalues --    3.18809   3.29209   3.29890   3.30621   3.30899
 Alpha virt. eigenvalues --    3.31788   3.33180   3.49101   3.49787   3.50440
 Alpha virt. eigenvalues --    3.52136   3.52489   3.53205   3.54015   3.54599
 Alpha virt. eigenvalues --    3.56085   3.57352   3.57808   3.59329   3.59990
 Alpha virt. eigenvalues --    3.62461   3.64241   3.66010   3.70899   3.71693
 Alpha virt. eigenvalues --    3.97822   3.98252   3.98934   3.99548   4.00128
 Alpha virt. eigenvalues --    4.00930   4.08949   4.09256   4.09939   4.11624
 Alpha virt. eigenvalues --    4.12355   4.13528   4.15137   4.15421   4.17359
 Alpha virt. eigenvalues --    4.19089   4.24694   4.25302   4.26285   4.27188
 Alpha virt. eigenvalues --    4.29759   4.34101   4.38947   4.43647   4.53188
 Alpha virt. eigenvalues --    4.53393   4.54832   4.55457   4.56184   4.56998
 Alpha virt. eigenvalues --    4.91039   4.92033   4.95446   4.95699   4.96334
 Alpha virt. eigenvalues --    4.97141   4.97592   4.99250   5.08421   5.09442
 Alpha virt. eigenvalues --    5.09606   5.10887   5.24366   5.25079   5.25156
 Alpha virt. eigenvalues --    5.25654   5.26046   5.29612   5.69937   5.70416
 Alpha virt. eigenvalues --    5.72511   5.74162   5.75129   5.78375  15.22823
 Alpha virt. eigenvalues --   15.39719
          Condensed to atoms (all electrons):
 Mulliken charges:
               1
     1  C   -0.146066
     2  H    0.126961
     3  H    0.070074
     4  H   -0.064616
     5  H    0.025521
     6  Bq   0.000000
     7  Bq   0.000000
     8  Bq   0.000000
     9  Bq   0.000000
    10  C   -0.181013
    11  H    0.056494
    12  H    0.027315
    13  H    0.176821
    14  H   -0.091490
    15  Bq   0.000000
    16  Bq   0.000000
    17  Bq   0.000000
    18  Bq   0.000000
 Sum of Mulliken charges =  -0.00000
 Mulliken charges with hydrogens summed into heavy atoms:
               1
     1  C   -0.146066
     6  Bq   0.070074
     7  Bq  -0.039096
     8  Bq   0.126961
     9  Bq   0.000000
    10  C   -0.181013
    15  Bq   0.027315
    16  Bq  -0.091490
    17  Bq   0.056494
    18  Bq   0.176821
 Electronic spatial extent (au):  <R**2>=            577.8785
 Charge=             -0.0000 electrons
 Dipole moment (field-independent basis, Debye):
    X=             -0.0002    Y=             -0.0010    Z=              0.0064  Tot=              0.0064

 Test job not archived.
 1\1\GINC-CHIMERA-NODE31\SP\RM05\Gen\C2H8\CONNORNM\05-Dec-2018\0\\#T M0
 5/Gen test Massage Symmetry=None SCF=(tight,maxcyc=60)\\M05 opt\\0,1\C
 ,0,0.,0.,0.\H,0,0.92018283,0.,0.61583237\H,0,-0.4106018,1.02707612,-0.
 05006761\H,0,0.23992215,-0.35179766,-1.02208695\H,0,-0.74950318,-0.675
 27846,0.45632219\Bq,0,-0.60889848,0.,-0.40750531\Bq,0,0.27170123,-0.67
 963133,0.03313047\Bq,0,-0.15876,0.23278967,0.67632993\Bq,0,0.49595725,
 0.44684166,-0.30195509\C,0,0.,0.,3.76321352\H,0,0.28555812,-1.03066341
 ,4.04987614\H,0,0.87294557,0.5140806,3.31636553\H,0,-0.82420607,-0.037
 23619,3.0247802\H,0,-0.33429761,0.553819,4.66183223\Bq,0,-0.18895799,0
 .6820051,3.57352466\Bq,0,-0.57764089,-0.34017467,4.0588994\Bq,0,0.5453
 8925,0.02463973,4.25184569\Bq,0,0.22120963,-0.36647016,3.16858434\\Ver
 sion=AS64L-G09RevD.01\HF=-89.8510692\RMSD=7.940e-09\Dipole=-0.0000811,
 -0.0004081,0.0025014\Quadrupole=-0.0299966,-0.0207983,0.0507949,-0.001
 4286,0.0042362,-0.0056761\PG=Unknown\\@


 I am not a vegetarian because I love animals;
 I am a vegetarian because I hate plants.
                               -- A. Whitney Brown
 Job cpu time:       0 days  0 hours 18 minutes 17.9 seconds.
 File lengths (MBytes):  RWF=     41 Int=      0 D2E=      0 Chk=      4 Scr=      1
 Normal termination of Gaussian 09 at Wed Dec  5 22:06:20 2018.
