 Entering Gaussian System, Link 0=/data/szalewicgrp/connornm/opt/Gaussian/g09-M05-par/g09/g09
 AtFile(1): aug-cc-pVTZ.gbs
 Initial command:
 /data/szalewicgrp/connornm/opt/Gaussian/g09-M05-par/g09/l1.exe "/scratch/local/Gau-20148.inp" -scrdir="/scratch/local/"
 Entering Link 1 = /data/szalewicgrp/connornm/opt/Gaussian/g09-M05-par/g09/l1.exe PID=     20149.
  
 Copyright (c) 1988,1990,1992,1993,1995,1998,2003,2009,2013,
            Gaussian, Inc.  All Rights Reserved.
  
 This is part of the Gaussian(R) 09 program.  It is based on
 the Gaussian(R) 03 system (copyright 2003, Gaussian, Inc.),
 the Gaussian(R) 98 system (copyright 1998, Gaussian, Inc.),
 the Gaussian(R) 94 system (copyright 1995, Gaussian, Inc.),
 the Gaussian 92(TM) system (copyright 1992, Gaussian, Inc.),
 the Gaussian 90(TM) system (copyright 1990, Gaussian, Inc.),
 the Gaussian 88(TM) system (copyright 1988, Gaussian, Inc.),
 the Gaussian 86(TM) system (copyright 1986, Carnegie Mellon
 University), and the Gaussian 82(TM) system (copyright 1983,
 Carnegie Mellon University). Gaussian is a federally registered
 trademark of Gaussian, Inc.
  
 This software contains proprietary and confidential information,
 including trade secrets, belonging to Gaussian, Inc.
  
 This software is provided under written license and may be
 used, copied, transmitted, or stored only in accord with that
 written license.
  
 The following legend is applicable only to US Government
 contracts under FAR:
  
                    RESTRICTED RIGHTS LEGEND
  
 Use, reproduction and disclosure by the US Government is
 subject to restrictions as set forth in subparagraphs (a)
 and (c) of the Commercial Computer Software - Restricted
 Rights clause in FAR 52.227-19.
  
 Gaussian, Inc.
 340 Quinnipiac St., Bldg. 40, Wallingford CT 06492
  
  
 ---------------------------------------------------------------
 Warning -- This program may not be used in any manner that
 competes with the business of Gaussian, Inc. or will provide
 assistance to any competitor of Gaussian, Inc.  The licensee
 of this program is prohibited from giving any competitor of
 Gaussian, Inc. access to this program.  By using this program,
 the user acknowledges that Gaussian, Inc. is engaged in the
 business of creating and licensing software in the field of
 computational chemistry and represents and warrants to the
 licensee that it is not a competitor of Gaussian, Inc. and that
 it will not use this program in any manner prohibited above.
 ---------------------------------------------------------------
  

 Cite this work as:
 Gaussian 09, Revision D.01,
 M. J. Frisch, G. W. Trucks, H. B. Schlegel, G. E. Scuseria, 
 M. A. Robb, J. R. Cheeseman, G. Scalmani, V. Barone, B. Mennucci, 
 G. A. Petersson, H. Nakatsuji, M. Caricato, X. Li, H. P. Hratchian, 
 A. F. Izmaylov, J. Bloino, G. Zheng, J. L. Sonnenberg, M. Hada, 
 M. Ehara, K. Toyota, R. Fukuda, J. Hasegawa, M. Ishida, T. Nakajima, 
 Y. Honda, O. Kitao, H. Nakai, T. Vreven, J. A. Montgomery, Jr., 
 J. E. Peralta, F. Ogliaro, M. Bearpark, J. J. Heyd, E. Brothers, 
 K. N. Kudin, V. N. Staroverov, T. Keith, R. Kobayashi, J. Normand, 
 K. Raghavachari, A. Rendell, J. C. Burant, S. S. Iyengar, J. Tomasi, 
 M. Cossi, N. Rega, J. M. Millam, M. Klene, J. E. Knox, J. B. Cross, 
 V. Bakken, C. Adamo, J. Jaramillo, R. Gomperts, R. E. Stratmann, 
 O. Yazyev, A. J. Austin, R. Cammi, C. Pomelli, J. W. Ochterski, 
 R. L. Martin, K. Morokuma, V. G. Zakrzewski, G. A. Voth, 
 P. Salvador, J. J. Dannenberg, S. Dapprich, A. D. Daniels, 
 O. Farkas, J. B. Foresman, J. V. Ortiz, J. Cioslowski, 
 and D. J. Fox, Gaussian, Inc., Wallingford CT, 2013.
 
 ******************************************
 Gaussian 09:  AS64L-G09RevD.01 24-Apr-2013
                 8-Dec-2018 
 ******************************************
 %Chk=CH400212
 %Mem=2GB
 %NProcShared=16
 Will use up to   16 processors via shared memory.
 ---------------------------------------------
 #T M05/Gen test Massage SCF=(tight,maxcyc=40)
 ---------------------------------------------
 -------
 M05 opt
 -------
 Symbolic Z-matrix:
 Charge =  0 Multiplicity = 1
 6                     0.        0.        0. 
 1                     0.36401   0.       -1.0457 
 1                    -0.57924  -0.92449   0.18917 
 1                     0.86375   0.04235   0.69147 
 1                    -0.64852   0.88214   0.16505 
 0                    -0.24087   0.        0.69195 
 0                     0.38329   0.61175  -0.12518 
 0                    -0.57155  -0.02802  -0.45756 
 0                     0.42913  -0.58372  -0.10922 
 6                     0.        0.        2.92115 
 1                     0.87996   0.60091   2.6202 
 1                    -0.78354   0.66979   3.32543 
 1                    -0.39588  -0.54154   2.04024 
 1                     0.29946  -0.72916   3.69873 
 0                    -0.58228  -0.39763   3.12029 
 0                     0.51848  -0.44321   2.65363 
 0                     0.26196   0.35834   3.50406 
 0                    -0.19816   0.4825    2.40661 
 
                    Distance matrix (angstroms):
                    1          2          3          4          5
     1  C    0.000000
     2  H    1.107243   0.000000
     3  H    1.107243   1.808119   0.000000
     4  H    1.107243   1.808119   1.808119   0.000000
     5  H    1.107242   1.808119   1.808119   1.808119   0.000000
     6  Bq   0.732679   1.839921   1.105427   1.105427   1.105427
     7  Bq   0.732679   1.105427   1.839921   1.105427   1.105427
     8  Bq   0.732679   1.105427   1.105427   1.839921   1.105427
     9  Bq   0.732679   1.105427   1.105427   1.105427   1.839921
    10  C    2.921151   3.983515   2.941754   2.391508   2.965604
    11  H    2.828581   3.750482   3.219629   2.008045   2.905694
    12  H    3.481528   4.568615   3.524144   3.169376   3.170379
    13  H    2.147687   3.223926   1.899140   1.935653   2.367909
    14  H    3.781794   4.800568   3.623159   3.155511   3.997727
    15  Bq   3.198967   4.290577   2.978099   2.860724   3.221124
    16  Bq   2.739894   3.728987   2.740472   2.050621   3.051465
    17  Bq   3.532065   4.564991   3.652641   2.893554   3.500329
    18  Bq   2.462491   3.530906   2.653658   2.064722   2.321019
                    6          7          8          9         10
     6  Bq   0.000000
     7  Bq   1.196459   0.000000
     8  Bq   1.196459   1.196459   0.000000
     9  Bq   1.196459   1.196459   1.196459   0.000000
    10  C    2.242172   3.130696   3.426825   3.115771   0.000000
    11  H    2.309866   2.789963   3.460497   3.009375   1.107243
    12  H    2.770975   3.643013   3.852646   3.852100   1.107243
    13  H    1.461220   2.574141   2.556081   2.302737   1.107242
    14  H    3.140755   4.053066   4.304068   3.812932   1.107243
    15  Bq   2.484251   3.533306   3.596908   3.389297   0.732679
    16  Bq   2.149703   2.975398   3.322657   2.767865   0.732679
    17  Bq   2.879097   3.640098   4.066751   3.737812   0.732679
    18  Bq   1.781766   2.600914   2.933180   2.803523   0.732679
                   11         12         13         14         15
    11  H    0.000000
    12  H    1.808119   0.000000
    13  H    1.808119   1.808119   0.000000
    14  H    1.808119   1.808119   1.808119   0.000000
    15  Bq   1.839921   1.105427   1.105427   1.105427   0.000000
    16  Bq   1.105427   1.839921   1.105427   1.105427   1.196459
    17  Bq   1.105427   1.105427   1.839921   1.105427   1.196459
    18  Bq   1.105427   1.105427   1.105427   1.839921   1.196459
                   16         17         18
    16  Bq   0.000000
    17  Bq   1.196459   0.000000
    18  Bq   1.196459   1.196459   0.000000
 Symmetry turned off by external request.
 Symmetry turned off:
 Cannot cope with ghost atoms or with translation vectors.
 Framework group  C1[X(C2H8)]
 NUMDOF-- NAT=    10 NAtoms=    18
 Deg. of freedom     0
 Rotational constants (GHZ):     76.6916053      6.7394405      6.7394405
 Warning:  center   6 has no basis functions!
 Warning:  center   7 has no basis functions!
 Warning:  center   8 has no basis functions!
 Warning:  center   9 has no basis functions!
 Warning:  center  15 has no basis functions!
 Warning:  center  16 has no basis functions!
 Warning:  center  17 has no basis functions!
 Warning:  center  18 has no basis functions!
   276 basis functions,   360 primitive gaussians,   310 cartesian basis functions
    10 alpha electrons       10 beta electrons
       nuclear repulsion energy        44.4478589330 Hartrees.
 IMHF & INEx in M05                  614413                  385587
 NAtoms=   18 NActive=   18 NUniq=   18 SFac= 1.00D+00 NAtFMM=   60 NAOKFM=F Big=F
 ExpMin= 2.53D-02 ExpMax= 8.24D+03 ExpMxC= 2.81D+02 IAcc=3 IRadAn=         5 AccDes= 0.00D+00
 Harris functional with IExCor= 1009 and IRadAn=       5 diagonalized for initial guess.
 HarFok:  IExCor= 1009 AccDes= 0.00D+00 IRadAn=         5 IDoV= 1 UseB2=F ITyADJ=14
 ICtDFT=  3500011 ScaDFX=  1.000000  1.000000  1.000000  1.000000
 FoFCou: FMM=F IPFlag=           0 FMFlag=      100000 FMFlg1=           0
         NFxFlg=           0 DoJE=T BraDBF=F KetDBF=T FulRan=T
         wScrn=  0.000000 ICntrl=     500 IOpCl=  0 I1Cent=   200000004 NGrid=           0
         NMat0=    1 NMatS0=      1 NMatT0=    0 NMatD0=    1 NMtDS0=    0 NMtDT0=    0
 Symmetry not used in FoFCou.
 SCF Done:  E(RM05) =  -81.8029118255     A.U. after    9 cycles
            NFock=  9  Conv=0.24D-08     -V/T= 2.0111

 **********************************************************************

            Population analysis using the SCF density.

 **********************************************************************

 Alpha  occ. eigenvalues --  -10.74230 -10.73714  -0.84351  -0.81279  -0.52075
 Alpha  occ. eigenvalues --   -0.50481  -0.49236  -0.47966  -0.47030  -0.44574
 Alpha virt. eigenvalues --   -0.00394   0.01661   0.02384   0.02517   0.04050
 Alpha virt. eigenvalues --    0.04592   0.04820   0.06402   0.08480   0.08745
 Alpha virt. eigenvalues --    0.09379   0.10287   0.10579   0.11184   0.11661
 Alpha virt. eigenvalues --    0.12841   0.13950   0.14567   0.15153   0.15753
 Alpha virt. eigenvalues --    0.17907   0.18911   0.22191   0.23789   0.24809
 Alpha virt. eigenvalues --    0.25262   0.25942   0.26382   0.27069   0.27611
 Alpha virt. eigenvalues --    0.28873   0.29483   0.29939   0.31154   0.31686
 Alpha virt. eigenvalues --    0.32038   0.32366   0.33355   0.33958   0.34755
 Alpha virt. eigenvalues --    0.35504   0.36191   0.36900   0.37405   0.39097
 Alpha virt. eigenvalues --    0.39792   0.40517   0.40891   0.42220   0.43228
 Alpha virt. eigenvalues --    0.44699   0.45327   0.46789   0.48425   0.48792
 Alpha virt. eigenvalues --    0.51906   0.52454   0.53985   0.58440   0.61791
 Alpha virt. eigenvalues --    0.64352   0.65933   0.67139   0.68348   0.69859
 Alpha virt. eigenvalues --    0.70449   0.71730   0.72077   0.74035   0.74425
 Alpha virt. eigenvalues --    0.76018   0.76664   0.77835   0.78230   0.79648
 Alpha virt. eigenvalues --    0.80154   0.80526   0.83124   0.83363   0.85722
 Alpha virt. eigenvalues --    0.87054   0.88521   0.89090   0.90115   0.91496
 Alpha virt. eigenvalues --    0.92067   0.93028   0.93893   0.95409   0.96467
 Alpha virt. eigenvalues --    0.98063   0.99078   0.99878   1.01505   1.02568
 Alpha virt. eigenvalues --    1.04117   1.05350   1.05962   1.06884   1.08858
 Alpha virt. eigenvalues --    1.09804   1.10088   1.11181   1.13080   1.14802
 Alpha virt. eigenvalues --    1.16195   1.19642   1.20313   1.22507   1.25272
 Alpha virt. eigenvalues --    1.27230   1.28503   1.32283   1.34268   1.36432
 Alpha virt. eigenvalues --    1.39407   1.42017   1.43902   1.44739   1.45145
 Alpha virt. eigenvalues --    1.47155   1.48060   1.49318   1.50163   1.51343
 Alpha virt. eigenvalues --    1.51451   1.54428   1.55530   1.56926   1.58605
 Alpha virt. eigenvalues --    1.60448   1.63365   1.64832   1.67702   1.67943
 Alpha virt. eigenvalues --    1.69853   1.70859   1.72656   1.74010   1.77571
 Alpha virt. eigenvalues --    1.77958   1.81217   1.82334   1.84449   1.85326
 Alpha virt. eigenvalues --    1.86512   1.90885   1.92233   1.95512   1.96030
 Alpha virt. eigenvalues --    2.00044   2.01759   2.03190   2.03985   2.06711
 Alpha virt. eigenvalues --    2.07758   2.13125   2.14884   2.16524   2.22490
 Alpha virt. eigenvalues --    2.44431   2.57831   2.80322   2.86960   2.93226
 Alpha virt. eigenvalues --    2.95286   2.97321   2.98535   3.01458   3.05617
 Alpha virt. eigenvalues --    3.21832   3.22043   3.24494   3.25145   3.27099
 Alpha virt. eigenvalues --    3.28028   3.29296   3.30546   3.31850   3.34012
 Alpha virt. eigenvalues --    3.34626   3.38573   3.39038   3.44524   3.50104
 Alpha virt. eigenvalues --    3.56636   3.58885   3.59663   3.60240   3.62002
 Alpha virt. eigenvalues --    3.65354   3.69578   3.71207   3.72940   3.73313
 Alpha virt. eigenvalues --    3.74483   3.75521   3.76856   3.78871   3.80620
 Alpha virt. eigenvalues --    3.80890   3.81359   3.85091   3.87301   3.88732
 Alpha virt. eigenvalues --    3.93554   3.95598   3.98966   4.05709   4.09632
 Alpha virt. eigenvalues --    4.18900   4.20044   4.21523   4.22536   4.26826
 Alpha virt. eigenvalues --    4.32843   4.34824   4.35863   4.38346   4.39731
 Alpha virt. eigenvalues --    4.42071   4.43053   4.46321   4.49224   4.52576
 Alpha virt. eigenvalues --    4.52713   4.54271   4.54986   4.59744   4.64623
 Alpha virt. eigenvalues --    4.69696   4.70102   4.79722   4.80169   4.84107
 Alpha virt. eigenvalues --    4.87851   4.90180   4.94620   4.97059   5.01278
 Alpha virt. eigenvalues --    5.14464   5.16208   5.16886   5.17545   5.18736
 Alpha virt. eigenvalues --    5.25569   5.29115   5.30488   5.34448   5.34756
 Alpha virt. eigenvalues --    5.38059   5.42406   5.58681   5.60957   5.62149
 Alpha virt. eigenvalues --    5.65808   5.67476   5.79115   6.07718   6.08766
 Alpha virt. eigenvalues --    6.11022   6.13529   6.18935   6.23637  17.17598
 Alpha virt. eigenvalues --   17.32415
          Condensed to atoms (all electrons):
 Mulliken charges:
               1
     1  C   -1.949239
     2  H    0.410005
     3  H    0.476396
     4  H    0.600720
     5  H    0.457403
     6  Bq   0.000000
     7  Bq   0.000000
     8  Bq   0.000000
     9  Bq   0.000000
    10  C   -1.975624
    11  H    0.442675
    12  H    0.435436
    13  H    0.709723
    14  H    0.392507
    15  Bq   0.000000
    16  Bq   0.000000
    17  Bq   0.000000
    18  Bq   0.000000
 Sum of Mulliken charges =  -0.00000
 Mulliken charges with hydrogens summed into heavy atoms:
               1
     1  C   -1.949239
     6  Bq   0.000000
     7  Bq   1.010725
     8  Bq   0.933799
     9  Bq   0.000000
    10  C   -1.975624
    15  Bq   0.000000
    16  Bq   0.392507
    17  Bq   0.000000
    18  Bq   1.587833
 Electronic spatial extent (au):  <R**2>=            378.5586
 Charge=              0.0000 electrons
 Dipole moment (field-independent basis, Debye):
    X=             -0.0003    Y=             -0.0104    Z=             -0.0847  Tot=              0.0854

 Test job not archived.
 1\1\GINC-CHIMERA-NODE23\SP\RM05\Gen\C2H8\CONNORNM\08-Dec-2018\0\\#T M0
 5/Gen test Massage SCF=(tight,maxcyc=40)\\M05 opt\\0,1\C,0,0.,0.,0.\H,
 0,0.36400776,0.,-1.045698\H,0,-0.57923815,-0.9244911,0.18917011\H,0,0.
 86374594,0.04235137,0.69147326\H,0,-0.64851555,0.88213973,0.16505463\B
 q,0,-0.24086927,0.,0.69195371\Bq,0,0.38329038,0.61174932,-0.12517664\B
 q,0,-0.57155336,-0.02802452,-0.457558\Bq,0,0.42913225,-0.5837248,-0.10
 921907\C,0,0.,0.,2.92115074\H,0,0.87995541,0.60091101,2.62020158\H,0,-
 0.78353598,0.66978721,3.32543088\H,0,-0.39588013,-0.54153537,2.0402396
 7\H,0,0.2994607,-0.72916284,3.69873084\Bq,0,-0.5822794,-0.39763163,3.1
 2029321\Bq,0,0.51847725,-0.44320802,2.65363265\Bq,0,0.26195969,0.35834
 19,3.50406252\Bq,0,-0.19815754,0.48249774,2.40661459\\Version=AS64L-G0
 9RevD.01\HF=-81.8029118\RMSD=2.392e-09\Dipole=-0.0001033,-0.0041106,-0
 .0333418\Quadrupole=0.2875616,0.2921684,-0.57973,0.0082575,0.0217374,-
 0.0132335\PG=C01 [X(C2H8)]\\@


 THOSE WHO ARE UNABLE TO LEARN FROM PAST MEETINGS
 ARE CONDEMNED TO REPEAT THEM.
 Job cpu time:       0 days  0 hours 16 minutes 35.2 seconds.
 File lengths (MBytes):  RWF=     41 Int=      0 D2E=      0 Chk=      4 Scr=      1
 Normal termination of Gaussian 09 at Sat Dec  8 15:28:07 2018.
