 Entering Gaussian System, Link 0=/data/szalewicgrp/connornm/opt/Gaussian/g09-M05-par/g09/g09
 AtFile(1): aug-cc-pVTZ.gbs
 Initial command:
 /data/szalewicgrp/connornm/opt/Gaussian/g09-M05-par/g09/l1.exe "/scratch/local/Gau-41988.inp" -scrdir="/scratch/local/"
 Entering Link 1 = /data/szalewicgrp/connornm/opt/Gaussian/g09-M05-par/g09/l1.exe PID=     41989.
  
 Copyright (c) 1988,1990,1992,1993,1995,1998,2003,2009,2013,
            Gaussian, Inc.  All Rights Reserved.
  
 This is part of the Gaussian(R) 09 program.  It is based on
 the Gaussian(R) 03 system (copyright 2003, Gaussian, Inc.),
 the Gaussian(R) 98 system (copyright 1998, Gaussian, Inc.),
 the Gaussian(R) 94 system (copyright 1995, Gaussian, Inc.),
 the Gaussian 92(TM) system (copyright 1992, Gaussian, Inc.),
 the Gaussian 90(TM) system (copyright 1990, Gaussian, Inc.),
 the Gaussian 88(TM) system (copyright 1988, Gaussian, Inc.),
 the Gaussian 86(TM) system (copyright 1986, Carnegie Mellon
 University), and the Gaussian 82(TM) system (copyright 1983,
 Carnegie Mellon University). Gaussian is a federally registered
 trademark of Gaussian, Inc.
  
 This software contains proprietary and confidential information,
 including trade secrets, belonging to Gaussian, Inc.
  
 This software is provided under written license and may be
 used, copied, transmitted, or stored only in accord with that
 written license.
  
 The following legend is applicable only to US Government
 contracts under FAR:
  
                    RESTRICTED RIGHTS LEGEND
  
 Use, reproduction and disclosure by the US Government is
 subject to restrictions as set forth in subparagraphs (a)
 and (c) of the Commercial Computer Software - Restricted
 Rights clause in FAR 52.227-19.
  
 Gaussian, Inc.
 340 Quinnipiac St., Bldg. 40, Wallingford CT 06492
  
  
 ---------------------------------------------------------------
 Warning -- This program may not be used in any manner that
 competes with the business of Gaussian, Inc. or will provide
 assistance to any competitor of Gaussian, Inc.  The licensee
 of this program is prohibited from giving any competitor of
 Gaussian, Inc. access to this program.  By using this program,
 the user acknowledges that Gaussian, Inc. is engaged in the
 business of creating and licensing software in the field of
 computational chemistry and represents and warrants to the
 licensee that it is not a competitor of Gaussian, Inc. and that
 it will not use this program in any manner prohibited above.
 ---------------------------------------------------------------
  

 Cite this work as:
 Gaussian 09, Revision D.01,
 M. J. Frisch, G. W. Trucks, H. B. Schlegel, G. E. Scuseria, 
 M. A. Robb, J. R. Cheeseman, G. Scalmani, V. Barone, B. Mennucci, 
 G. A. Petersson, H. Nakatsuji, M. Caricato, X. Li, H. P. Hratchian, 
 A. F. Izmaylov, J. Bloino, G. Zheng, J. L. Sonnenberg, M. Hada, 
 M. Ehara, K. Toyota, R. Fukuda, J. Hasegawa, M. Ishida, T. Nakajima, 
 Y. Honda, O. Kitao, H. Nakai, T. Vreven, J. A. Montgomery, Jr., 
 J. E. Peralta, F. Ogliaro, M. Bearpark, J. J. Heyd, E. Brothers, 
 K. N. Kudin, V. N. Staroverov, T. Keith, R. Kobayashi, J. Normand, 
 K. Raghavachari, A. Rendell, J. C. Burant, S. S. Iyengar, J. Tomasi, 
 M. Cossi, N. Rega, J. M. Millam, M. Klene, J. E. Knox, J. B. Cross, 
 V. Bakken, C. Adamo, J. Jaramillo, R. Gomperts, R. E. Stratmann, 
 O. Yazyev, A. J. Austin, R. Cammi, C. Pomelli, J. W. Ochterski, 
 R. L. Martin, K. Morokuma, V. G. Zakrzewski, G. A. Voth, 
 P. Salvador, J. J. Dannenberg, S. Dapprich, A. D. Daniels, 
 O. Farkas, J. B. Foresman, J. V. Ortiz, J. Cioslowski, 
 and D. J. Fox, Gaussian, Inc., Wallingford CT, 2013.
 
 ******************************************
 Gaussian 09:  AS64L-G09RevD.01 24-Apr-2013
                 5-Dec-2018 
 ******************************************
 %Chk=CH400145
 %Mem=2GB
 %NProcShared=16
 Will use up to   16 processors via shared memory.
 -----------------------------------------------------------
 #T M05/Gen test Massage Symmetry=None SCF=(tight,maxcyc=60)
 -----------------------------------------------------------
 -------
 M05 opt
 -------
 Symbolic Z-matrix:
 Charge =  0 Multiplicity = 1
 6                     0.        0.        0. 
 1                     0.42395   0.        1.02286 
 1                     0.0616    1.02055  -0.42506 
 1                     0.57369  -0.7005   -0.63731 
 1                    -1.05924  -0.32004   0.0395 
 0                    -0.28053   0.       -0.67684 
 0                    -0.04076  -0.67531   0.28127 
 0                    -0.37962   0.46353   0.42172 
 0                     0.70092   0.21178  -0.02614 
 6                     0.        0.        3.37091 
 1                     0.31731  -1.0303    3.11835 
 1                     0.19285   0.19298   4.44401 
 1                     0.57155   0.72308   2.75733 
 1                    -1.08171   0.11424   3.16395 
 0                    -0.20997   0.68176   3.53803 
 0                    -0.12761  -0.1277    2.66082 
 0                    -0.3782   -0.47847   3.77692 
 0                     0.71578  -0.07559   3.50786 
 
                    Distance matrix (angstroms):
                    1          2          3          4          5
     1  C    0.000000
     2  H    1.107242   0.000000
     3  H    1.107242   1.808119   0.000000
     4  H    1.107243   1.808119   1.808119   0.000000
     5  H    1.107242   1.808119   1.808119   1.808119   0.000000
     6  Bq   0.732679   1.839921   1.105427   1.105427   1.105427
     7  Bq   0.732679   1.105427   1.839921   1.105427   1.105427
     8  Bq   0.732679   1.105427   1.105427   1.839921   1.105427
     9  Bq   0.732679   1.105427   1.105427   1.105427   1.839921
    10  C    3.370910   2.386011   3.931246   4.109213   3.510373
    11  H    3.299439   2.337507   4.102084   3.778815   3.446543
    12  H    4.452380   3.434371   4.940643   5.173313   4.607676
    13  H    2.907301   1.884942   3.236690   3.681055   3.336796
    14  H    3.345699   2.619980   3.874212   4.225361   3.154562
    15  Bq   3.609234   2.681926   3.986807   4.467466   3.736927
    16  Bq   2.666940   1.733042   3.298021   3.420173   2.788594
    17  Bq   3.825849   2.908130   4.482983   4.521153   3.802268
    18  Bq   3.580944   2.503216   4.134894   4.194416   3.903846
                    6          7          8          9         10
     6  Bq   0.000000
     7  Bq   1.196459   0.000000
     8  Bq   1.196459   1.196459   0.000000
     9  Bq   1.196459   1.196459   1.196459   0.000000
    10  C    4.057465   3.162846   3.009440   3.475065   0.000000
    11  H    3.977741   2.881538   3.160550   3.402603   1.107243
    12  H    5.146312   4.258751   4.071831   4.498970   1.107243
    13  H    3.611436   2.908834   2.535193   2.832998   1.107243
    14  H    3.925125   3.164931   2.852152   3.655669   1.107242
    15  Bq   4.270244   3.532252   3.128554   3.708628   0.732679
    16  Bq   3.343608   2.443297   2.329521   2.832220   0.732679
    17  Bq   4.480460   3.517416   3.484938   4.013006   0.732679
    18  Bq   4.302341   3.367928   3.318866   3.545696   0.732679
                   11         12         13         14         15
    11  H    0.000000
    12  H    1.808119   0.000000
    13  H    1.808119   1.808119   0.000000
    14  H    1.808119   1.808119   1.808119   0.000000
    15  Bq   1.839921   1.105427   1.105427   1.105427   0.000000
    16  Bq   1.105427   1.839921   1.105427   1.105427   1.196459
    17  Bq   1.105427   1.105427   1.839921   1.105427   1.196459
    18  Bq   1.105427   1.105427   1.105427   1.839921   1.196459
                   16         17         18
    16  Bq   0.000000
    17  Bq   1.196459   0.000000
    18  Bq   1.196459   1.196459   0.000000
 Symmetry turned off by external request.
 Rotational constants (GHZ):     76.6916055      5.1742527      5.1742527
 Warning:  center   6 has no basis functions!
 Warning:  center   7 has no basis functions!
 Warning:  center   8 has no basis functions!
 Warning:  center   9 has no basis functions!
 Warning:  center  15 has no basis functions!
 Warning:  center  16 has no basis functions!
 Warning:  center  17 has no basis functions!
 Warning:  center  18 has no basis functions!
   276 basis functions,   360 primitive gaussians,   310 cartesian basis functions
    10 alpha electrons       10 beta electrons
       nuclear repulsion energy        42.1411775799 Hartrees.
 IMHF & INEx in M05                  614413                  385587
 NAtoms=   18 NActive=   18 NUniq=   18 SFac= 1.00D+00 NAtFMM=   60 NAOKFM=F Big=F
 ExpMin= 2.53D-02 ExpMax= 8.24D+03 ExpMxC= 2.81D+02 IAcc=3 IRadAn=         5 AccDes= 0.00D+00
 Harris functional with IExCor= 1009 and IRadAn=       5 diagonalized for initial guess.
 HarFok:  IExCor= 1009 AccDes= 0.00D+00 IRadAn=         5 IDoV= 1 UseB2=F ITyADJ=14
 ICtDFT=  3500011 ScaDFX=  1.000000  1.000000  1.000000  1.000000
 FoFCou: FMM=F IPFlag=           0 FMFlag=      100000 FMFlg1=           0
         NFxFlg=           0 DoJE=T BraDBF=F KetDBF=T FulRan=T
         wScrn=  0.000000 ICntrl=     500 IOpCl=  0 I1Cent=   200000004 NGrid=           0
         NMat0=    1 NMatS0=      1 NMatT0=    0 NMatD0=    1 NMtDS0=    0 NMtDT0=    0
 Symmetry not used in FoFCou.
 SCF Done:  E(RM05) =  -89.8460280900     A.U. after   12 cycles
            NFock= 12  Conv=0.37D-08     -V/T= 2.0273

 **********************************************************************

            Population analysis using the SCF density.

 **********************************************************************

 Alpha  occ. eigenvalues --  -11.79277 -11.78969  -0.96001  -0.94722  -0.67840
 Alpha  occ. eigenvalues --   -0.65974  -0.65886  -0.65396  -0.65305  -0.63466
 Alpha virt. eigenvalues --   -0.08839  -0.05104  -0.02670  -0.02632  -0.00682
 Alpha virt. eigenvalues --   -0.00265   0.00222   0.00809   0.01332   0.01735
 Alpha virt. eigenvalues --    0.02117   0.03461   0.03967   0.04809   0.06667
 Alpha virt. eigenvalues --    0.06963   0.07547   0.07624   0.08222   0.08529
 Alpha virt. eigenvalues --    0.09081   0.09402   0.11051   0.13611   0.14401
 Alpha virt. eigenvalues --    0.17182   0.18081   0.18616   0.18720   0.19751
 Alpha virt. eigenvalues --    0.19878   0.20999   0.21282   0.21863   0.22294
 Alpha virt. eigenvalues --    0.23320   0.23783   0.24973   0.25206   0.26194
 Alpha virt. eigenvalues --    0.26243   0.26878   0.26926   0.28029   0.28480
 Alpha virt. eigenvalues --    0.29173   0.29940   0.32306   0.33416   0.33521
 Alpha virt. eigenvalues --    0.34898   0.36264   0.37169   0.37623   0.39023
 Alpha virt. eigenvalues --    0.40024   0.41036   0.44660   0.45986   0.46720
 Alpha virt. eigenvalues --    0.48643   0.50978   0.52440   0.55508   0.56849
 Alpha virt. eigenvalues --    0.57145   0.59218   0.59739   0.60021   0.60948
 Alpha virt. eigenvalues --    0.63107   0.64350   0.64910   0.66096   0.67158
 Alpha virt. eigenvalues --    0.67360   0.69266   0.69428   0.71221   0.71743
 Alpha virt. eigenvalues --    0.73168   0.73201   0.73996   0.74989   0.75814
 Alpha virt. eigenvalues --    0.76658   0.77834   0.79248   0.80729   0.81309
 Alpha virt. eigenvalues --    0.81699   0.82370   0.83552   0.84351   0.85351
 Alpha virt. eigenvalues --    0.86826   0.88189   0.88875   0.91433   0.91916
 Alpha virt. eigenvalues --    0.93231   0.94642   0.94719   0.94869   0.96086
 Alpha virt. eigenvalues --    0.97118   0.97787   0.98580   1.01774   1.04002
 Alpha virt. eigenvalues --    1.05808   1.07676   1.12474   1.13481   1.17361
 Alpha virt. eigenvalues --    1.19309   1.20458   1.23948   1.28834   1.29208
 Alpha virt. eigenvalues --    1.30488   1.31183   1.31730   1.31936   1.32216
 Alpha virt. eigenvalues --    1.32893   1.34650   1.35493   1.36433   1.42244
 Alpha virt. eigenvalues --    1.44058   1.44246   1.46602   1.49188   1.49724
 Alpha virt. eigenvalues --    1.50939   1.52405   1.53231   1.54774   1.55527
 Alpha virt. eigenvalues --    1.56540   1.58314   1.61754   1.65384   1.66349
 Alpha virt. eigenvalues --    1.69059   1.70253   1.71895   1.78649   1.80095
 Alpha virt. eigenvalues --    1.82462   1.84868   1.85604   1.87517   1.87870
 Alpha virt. eigenvalues --    1.93792   1.94453   1.99803   2.05275   2.06616
 Alpha virt. eigenvalues --    2.18774   2.32672   2.46237   2.54943   2.56174
 Alpha virt. eigenvalues --    2.58968   2.63800   2.65297   2.66364   2.70386
 Alpha virt. eigenvalues --    3.03623   3.04470   3.05832   3.07133   3.07181
 Alpha virt. eigenvalues --    3.07604   3.08050   3.08963   3.10132   3.12229
 Alpha virt. eigenvalues --    3.13853   3.16270   3.16922   3.21579   3.25378
 Alpha virt. eigenvalues --    3.28247   3.29827   3.30202   3.31589   3.32516
 Alpha virt. eigenvalues --    3.39674   3.41543   3.49666   3.51108   3.52164
 Alpha virt. eigenvalues --    3.52860   3.53715   3.55057   3.55864   3.57470
 Alpha virt. eigenvalues --    3.59335   3.60396   3.61441   3.61959   3.62536
 Alpha virt. eigenvalues --    3.66367   3.70309   3.71930   3.73741   3.82917
 Alpha virt. eigenvalues --    3.97463   3.98275   3.99661   4.00816   4.01768
 Alpha virt. eigenvalues --    4.03632   4.09330   4.10411   4.12072   4.13491
 Alpha virt. eigenvalues --    4.14832   4.16219   4.17455   4.19527   4.20649
 Alpha virt. eigenvalues --    4.24745   4.26354   4.27887   4.30760   4.32059
 Alpha virt. eigenvalues --    4.34764   4.40231   4.44146   4.51419   4.55128
 Alpha virt. eigenvalues --    4.56347   4.58204   4.59809   4.63108   4.65820
 Alpha virt. eigenvalues --    4.92840   4.94312   4.95798   4.96886   4.97534
 Alpha virt. eigenvalues --    4.98109   4.99896   5.01049   5.08330   5.08751
 Alpha virt. eigenvalues --    5.13016   5.14367   5.25441   5.26074   5.27353
 Alpha virt. eigenvalues --    5.28909   5.31015   5.41565   5.71424   5.73250
 Alpha virt. eigenvalues --    5.74054   5.76688   5.79341   5.87224  15.43218
 Alpha virt. eigenvalues --   15.71409
          Condensed to atoms (all electrons):
 Mulliken charges:
               1
     1  C   -0.322780
     2  H    1.019562
     3  H   -0.103097
     4  H   -0.225109
     5  H   -0.124197
     6  Bq   0.000000
     7  Bq   0.000000
     8  Bq   0.000000
     9  Bq   0.000000
    10  C   -0.144035
    11  H    0.005790
    12  H   -0.247650
    13  H    0.084303
    14  H    0.057212
    15  Bq   0.000000
    16  Bq   0.000000
    17  Bq   0.000000
    18  Bq   0.000000
 Sum of Mulliken charges =  -0.00000
 Mulliken charges with hydrogens summed into heavy atoms:
               1
     1  C   -0.322780
     6  Bq  -0.103097
     7  Bq  -0.225109
     8  Bq  -0.124197
     9  Bq   1.019562
    10  C   -0.144035
    15  Bq   0.084303
    16  Bq   0.057212
    17  Bq   0.005790
    18  Bq  -0.247650
 Electronic spatial extent (au):  <R**2>=            478.1007
 Charge=             -0.0000 electrons
 Dipole moment (field-independent basis, Debye):
    X=              0.0402    Y=              0.0156    Z=              0.0718  Tot=              0.0838

 Test job not archived.
 1\1\GINC-CHIMERA-NODE27\SP\RM05\Gen\C2H8\CONNORNM\05-Dec-2018\0\\#T M0
 5/Gen test Massage Symmetry=None SCF=(tight,maxcyc=60)\\M05 opt\\0,1\C
 ,0,0.,0.,0.\H,0,0.42394953,0.,1.02286497\H,0,0.06160239,1.02054675,-0.
 42505932\H,0,0.57369191,-0.70050275,-0.6373064\H,0,-1.05924382,-0.3200
 4401,0.03950075\Bq,0,-0.28053362,0.,-0.67684476\Bq,0,-0.0407632,-0.675
 31076,0.28126799\Bq,0,-0.37962035,0.46353294,0.421715\Bq,0,0.70091718,
 0.21177781,-0.02613822\C,0,0.,0.,3.37091037\H,0,0.31730743,-1.03029835
 ,3.11834894\H,0,0.19285468,0.19298468,4.44401332\H,0,0.57155016,0.7230
 7685,2.75733377\H,0,-1.08171226,0.11423682,3.16394544\Bq,0,-0.20996698
 ,0.68176353,3.53803397\Bq,0,-0.12761477,-0.12770079,2.6608224\Bq,0,-0.
 37820313,-0.47847056,3.776923\Bq,0,0.71578487,-0.07559218,3.5078621\\V
 ersion=AS64L-G09RevD.01\HF=-89.8460281\RMSD=3.710e-09\Dipole=0.0158261
 ,0.0061315,0.0282645\Quadrupole=0.0354236,0.0248144,-0.060238,0.004251
 6,0.0476067,0.0042869\PG=Unknown\\@


 SCIENCE IS LONG AND LIFE IS SHORT.

                     DON MOSER IN THE FEBRUARY 1979 SMITHSONIAN
 Job cpu time:       0 days  0 hours 20 minutes 39.4 seconds.
 File lengths (MBytes):  RWF=     41 Int=      0 D2E=      0 Chk=      4 Scr=      1
 Normal termination of Gaussian 09 at Wed Dec  5 22:06:26 2018.
