 Entering Gaussian System, Link 0=/data/szalewicgrp/connornm/opt/Gaussian/g09-M05-par/g09/g09
 AtFile(1): aug-cc-pVTZ.gbs
 Initial command:
 /data/szalewicgrp/connornm/opt/Gaussian/g09-M05-par/g09/l1.exe "/scratch/local/Gau-2470.inp" -scrdir="/scratch/local/"
 Entering Link 1 = /data/szalewicgrp/connornm/opt/Gaussian/g09-M05-par/g09/l1.exe PID=      2471.
  
 Copyright (c) 1988,1990,1992,1993,1995,1998,2003,2009,2013,
            Gaussian, Inc.  All Rights Reserved.
  
 This is part of the Gaussian(R) 09 program.  It is based on
 the Gaussian(R) 03 system (copyright 2003, Gaussian, Inc.),
 the Gaussian(R) 98 system (copyright 1998, Gaussian, Inc.),
 the Gaussian(R) 94 system (copyright 1995, Gaussian, Inc.),
 the Gaussian 92(TM) system (copyright 1992, Gaussian, Inc.),
 the Gaussian 90(TM) system (copyright 1990, Gaussian, Inc.),
 the Gaussian 88(TM) system (copyright 1988, Gaussian, Inc.),
 the Gaussian 86(TM) system (copyright 1986, Carnegie Mellon
 University), and the Gaussian 82(TM) system (copyright 1983,
 Carnegie Mellon University). Gaussian is a federally registered
 trademark of Gaussian, Inc.
  
 This software contains proprietary and confidential information,
 including trade secrets, belonging to Gaussian, Inc.
  
 This software is provided under written license and may be
 used, copied, transmitted, or stored only in accord with that
 written license.
  
 The following legend is applicable only to US Government
 contracts under FAR:
  
                    RESTRICTED RIGHTS LEGEND
  
 Use, reproduction and disclosure by the US Government is
 subject to restrictions as set forth in subparagraphs (a)
 and (c) of the Commercial Computer Software - Restricted
 Rights clause in FAR 52.227-19.
  
 Gaussian, Inc.
 340 Quinnipiac St., Bldg. 40, Wallingford CT 06492
  
  
 ---------------------------------------------------------------
 Warning -- This program may not be used in any manner that
 competes with the business of Gaussian, Inc. or will provide
 assistance to any competitor of Gaussian, Inc.  The licensee
 of this program is prohibited from giving any competitor of
 Gaussian, Inc. access to this program.  By using this program,
 the user acknowledges that Gaussian, Inc. is engaged in the
 business of creating and licensing software in the field of
 computational chemistry and represents and warrants to the
 licensee that it is not a competitor of Gaussian, Inc. and that
 it will not use this program in any manner prohibited above.
 ---------------------------------------------------------------
  

 Cite this work as:
 Gaussian 09, Revision D.01,
 M. J. Frisch, G. W. Trucks, H. B. Schlegel, G. E. Scuseria, 
 M. A. Robb, J. R. Cheeseman, G. Scalmani, V. Barone, B. Mennucci, 
 G. A. Petersson, H. Nakatsuji, M. Caricato, X. Li, H. P. Hratchian, 
 A. F. Izmaylov, J. Bloino, G. Zheng, J. L. Sonnenberg, M. Hada, 
 M. Ehara, K. Toyota, R. Fukuda, J. Hasegawa, M. Ishida, T. Nakajima, 
 Y. Honda, O. Kitao, H. Nakai, T. Vreven, J. A. Montgomery, Jr., 
 J. E. Peralta, F. Ogliaro, M. Bearpark, J. J. Heyd, E. Brothers, 
 K. N. Kudin, V. N. Staroverov, T. Keith, R. Kobayashi, J. Normand, 
 K. Raghavachari, A. Rendell, J. C. Burant, S. S. Iyengar, J. Tomasi, 
 M. Cossi, N. Rega, J. M. Millam, M. Klene, J. E. Knox, J. B. Cross, 
 V. Bakken, C. Adamo, J. Jaramillo, R. Gomperts, R. E. Stratmann, 
 O. Yazyev, A. J. Austin, R. Cammi, C. Pomelli, J. W. Ochterski, 
 R. L. Martin, K. Morokuma, V. G. Zakrzewski, G. A. Voth, 
 P. Salvador, J. J. Dannenberg, S. Dapprich, A. D. Daniels, 
 O. Farkas, J. B. Foresman, J. V. Ortiz, J. Cioslowski, 
 and D. J. Fox, Gaussian, Inc., Wallingford CT, 2013.
 
 ******************************************
 Gaussian 09:  AS64L-G09RevD.01 24-Apr-2013
                 8-Dec-2018 
 ******************************************
 %Chk=CH400108
 %Mem=2GB
 %NProcShared=16
 Will use up to   16 processors via shared memory.
 ---------------------------------------------
 #T M05/Gen test Massage SCF=(tight,maxcyc=40)
 ---------------------------------------------
 -------
 M05 opt
 -------
 Symbolic Z-matrix:
 Charge =  0 Multiplicity = 1
 6                     0.        0.        0. 
 1                     0.8333    0.       -0.7291 
 1                    -0.54719   0.96039  -0.0649 
 1                    -0.69073  -0.83454  -0.22895 
 1                     0.40462  -0.12585   1.02295 
 0                    -0.55141   0.        0.48246 
 0                     0.36209  -0.63551   0.04294 
 0                     0.45707   0.55223   0.1515 
 0                    -0.26775   0.08328  -0.6769 
 6                     0.        0.        4.0512 
 1                    -0.9173   -0.55613   3.77686 
 1                    -0.24905   0.77578   4.80095 
 1                     0.74284  -0.70118   4.47842 
 1                     0.42351   0.48154   3.14857 
 0                     0.60699   0.368     4.23273 
 0                     0.1648   -0.51334   3.55508 
 0                    -0.49155   0.46398   3.76851 
 0                    -0.28024  -0.31864   4.64849 
 
                    Distance matrix (angstroms):
                    1          2          3          4          5
     1  C    0.000000
     2  H    1.107243   0.000000
     3  H    1.107243   1.808119   0.000000
     4  H    1.107243   1.808119   1.808119   0.000000
     5  H    1.107243   1.808119   1.808119   1.808119   0.000000
     6  Bq   0.732679   1.839921   1.105427   1.105427   1.105427
     7  Bq   0.732679   1.105427   1.839921   1.105427   1.105427
     8  Bq   0.732679   1.105427   1.105427   1.839921   1.105427
     9  Bq   0.732679   1.105427   1.105427   1.105427   1.839921
    10  C    4.051201   4.852392   4.261929   4.415118   3.057755
    11  H    3.926249   4.865969   4.146801   4.021865   3.084911
    12  H    4.869602   5.688134   4.878471   5.299824   3.938724
    13  H    4.593440   5.255293   5.006668   4.922624   3.519325
    14  H    3.213212   3.928887   3.390860   3.792261   2.210778
    15  Bq   4.291841   4.980609   4.489176   4.799669   3.253853
    16  Bq   3.595729   4.366306   3.972789   3.892812   2.572808
    17  Bq   3.828648   4.711583   3.865811   4.207790   2.947731
    18  Bq   4.667815   5.500908   4.891131   4.921792   3.694689
                    6          7          8          9         10
     6  Bq   0.000000
     7  Bq   1.196459   0.000000
     8  Bq   1.196459   1.196459   0.000000
     9  Bq   1.196459   1.196459   1.196459   0.000000
    10  C    3.611091   4.074446   3.965040   4.736410   0.000000
    11  H    3.360993   3.947823   4.032447   4.546075   1.107242
    12  H    4.398029   5.000388   4.708079   5.521486   1.107242
    13  H    4.258454   4.452271   4.513858   5.311683   1.107242
    14  H    2.879322   3.300981   2.998091   3.907770   1.107243
    15  Bq   3.942320   4.315247   4.088140   4.995072   0.732679
    16  Bq   3.196479   3.519793   3.578437   4.295661   0.732679
    17  Bq   3.319183   3.977109   3.740375   4.467289   0.732679
    18  Bq   4.186986   4.660904   4.639497   5.340547   0.732679
                   11         12         13         14         15
    11  H    0.000000
    12  H    1.808119   0.000000
    13  H    1.808119   1.808119   0.000000
    14  H    1.808119   1.808119   1.808119   0.000000
    15  Bq   1.839921   1.105427   1.105427   1.105427   0.000000
    16  Bq   1.105427   1.839921   1.105427   1.105427   1.196459
    17  Bq   1.105427   1.105427   1.839921   1.105427   1.196459
    18  Bq   1.105427   1.105427   1.105427   1.839921   1.196459
                   16         17         18
    16  Bq   0.000000
    17  Bq   1.196459   0.000000
    18  Bq   1.196459   1.196459   0.000000
 Symmetry turned off by external request.
 Symmetry turned off:
 Cannot cope with ghost atoms or with translation vectors.
 Framework group  C1[X(C2H8)]
 NUMDOF-- NAT=    10 NAtoms=    18
 Deg. of freedom     0
 Rotational constants (GHZ):     76.6916054      3.6583367      3.6583367
 Warning:  center   6 has no basis functions!
 Warning:  center   7 has no basis functions!
 Warning:  center   8 has no basis functions!
 Warning:  center   9 has no basis functions!
 Warning:  center  15 has no basis functions!
 Warning:  center  16 has no basis functions!
 Warning:  center  17 has no basis functions!
 Warning:  center  18 has no basis functions!
   276 basis functions,   360 primitive gaussians,   310 cartesian basis functions
    10 alpha electrons       10 beta electrons
       nuclear repulsion energy        39.5606661683 Hartrees.
 IMHF & INEx in M05                  614413                  385587
 NAtoms=   18 NActive=   18 NUniq=   18 SFac= 1.00D+00 NAtFMM=   60 NAOKFM=F Big=F
 ExpMin= 2.53D-02 ExpMax= 8.24D+03 ExpMxC= 2.81D+02 IAcc=3 IRadAn=         5 AccDes= 0.00D+00
 Harris functional with IExCor= 1009 and IRadAn=       5 diagonalized for initial guess.
 HarFok:  IExCor= 1009 AccDes= 0.00D+00 IRadAn=         5 IDoV= 1 UseB2=F ITyADJ=14
 ICtDFT=  3500011 ScaDFX=  1.000000  1.000000  1.000000  1.000000
 FoFCou: FMM=F IPFlag=           0 FMFlag=      100000 FMFlg1=           0
         NFxFlg=           0 DoJE=T BraDBF=F KetDBF=T FulRan=T
         wScrn=  0.000000 ICntrl=     500 IOpCl=  0 I1Cent=   200000004 NGrid=           0
         NMat0=    1 NMatS0=      1 NMatT0=    0 NMatD0=    1 NMtDS0=    0 NMtDT0=    0
 Symmetry not used in FoFCou.
 SCF Done:  E(RM05) =  -91.7627583046     A.U. after   12 cycles
            NFock= 12  Conv=0.29D-08     -V/T= 2.0335

 **********************************************************************

            Population analysis using the SCF density.

 **********************************************************************

 Alpha  occ. eigenvalues --  -12.05220 -12.05211  -0.99655  -0.99254  -0.72319
 Alpha  occ. eigenvalues --   -0.71210  -0.71178  -0.71120  -0.71092  -0.70022
 Alpha virt. eigenvalues --   -0.10967  -0.07218  -0.04323  -0.03830  -0.02186
 Alpha virt. eigenvalues --   -0.01897  -0.01726  -0.01721  -0.00955  -0.00705
 Alpha virt. eigenvalues --    0.00020   0.01560   0.01916   0.03595   0.04639
 Alpha virt. eigenvalues --    0.05631   0.06174   0.06558   0.06671   0.07556
 Alpha virt. eigenvalues --    0.08133   0.08442   0.08707   0.09229   0.10204
 Alpha virt. eigenvalues --    0.15581   0.15947   0.17218   0.18468   0.19592
 Alpha virt. eigenvalues --    0.19676   0.19902   0.20571   0.20832   0.21017
 Alpha virt. eigenvalues --    0.21693   0.22066   0.22724   0.23625   0.24218
 Alpha virt. eigenvalues --    0.24756   0.25050   0.25132   0.25572   0.25740
 Alpha virt. eigenvalues --    0.26421   0.26979   0.27836   0.28384   0.30523
 Alpha virt. eigenvalues --    0.32429   0.33386   0.34842   0.36677   0.37253
 Alpha virt. eigenvalues --    0.39238   0.40195   0.40734   0.42536   0.42617
 Alpha virt. eigenvalues --    0.44624   0.46024   0.47247   0.49965   0.53439
 Alpha virt. eigenvalues --    0.55931   0.56425   0.57021   0.57498   0.58209
 Alpha virt. eigenvalues --    0.58802   0.60076   0.62692   0.62875   0.63442
 Alpha virt. eigenvalues --    0.64864   0.65589   0.66975   0.68940   0.69983
 Alpha virt. eigenvalues --    0.70823   0.71323   0.71517   0.71818   0.72598
 Alpha virt. eigenvalues --    0.73488   0.74783   0.75270   0.75446   0.76746
 Alpha virt. eigenvalues --    0.76918   0.77855   0.78299   0.79592   0.80566
 Alpha virt. eigenvalues --    0.82208   0.82800   0.84879   0.86299   0.87037
 Alpha virt. eigenvalues --    0.87313   0.88520   0.89362   0.90307   0.91232
 Alpha virt. eigenvalues --    0.91737   0.94401   0.94720   0.95477   0.96799
 Alpha virt. eigenvalues --    0.97980   0.98348   0.99935   1.02164   1.05451
 Alpha virt. eigenvalues --    1.13053   1.16348   1.19280   1.22185   1.22947
 Alpha virt. eigenvalues --    1.24523   1.25412   1.25885   1.26384   1.27296
 Alpha virt. eigenvalues --    1.27430   1.27917   1.28398   1.29778   1.30747
 Alpha virt. eigenvalues --    1.31543   1.35099   1.37766   1.39030   1.40106
 Alpha virt. eigenvalues --    1.42464   1.46024   1.46594   1.48072   1.48856
 Alpha virt. eigenvalues --    1.50297   1.52252   1.53345   1.54795   1.55790
 Alpha virt. eigenvalues --    1.60757   1.60929   1.63566   1.65924   1.71308
 Alpha virt. eigenvalues --    1.74580   1.75722   1.77995   1.80043   1.82351
 Alpha virt. eigenvalues --    1.82660   1.89546   1.91747   1.94641   2.03399
 Alpha virt. eigenvalues --    2.10530   2.21900   2.30298   2.34197   2.46032
 Alpha virt. eigenvalues --    2.49659   2.49963   2.52452   2.53362   2.55300
 Alpha virt. eigenvalues --    2.96048   2.97700   2.98323   2.99292   2.99541
 Alpha virt. eigenvalues --    3.00081   3.00757   3.01024   3.01811   3.03628
 Alpha virt. eigenvalues --    3.04752   3.06202   3.06502   3.12142   3.16894
 Alpha virt. eigenvalues --    3.18072   3.22054   3.22286   3.23188   3.23809
 Alpha virt. eigenvalues --    3.27380   3.32450   3.43496   3.44579   3.45099
 Alpha virt. eigenvalues --    3.45601   3.46051   3.47032   3.47870   3.48339
 Alpha virt. eigenvalues --    3.49772   3.50352   3.52278   3.52625   3.53519
 Alpha virt. eigenvalues --    3.54390   3.56386   3.60061   3.60394   3.62348
 Alpha virt. eigenvalues --    3.89771   3.90995   3.91995   3.92894   3.93436
 Alpha virt. eigenvalues --    3.94679   4.02345   4.02909   4.04077   4.04691
 Alpha virt. eigenvalues --    4.05333   4.06277   4.07245   4.09122   4.11727
 Alpha virt. eigenvalues --    4.14079   4.17953   4.18076   4.19545   4.19811
 Alpha virt. eigenvalues --    4.21554   4.23243   4.30541   4.36141   4.46142
 Alpha virt. eigenvalues --    4.46687   4.47169   4.48479   4.51343   4.52341
 Alpha virt. eigenvalues --    4.80369   4.85195   4.88660   4.88958   4.89765
 Alpha virt. eigenvalues --    4.90208   4.90432   4.92451   5.01888   5.02539
 Alpha virt. eigenvalues --    5.03512   5.03776   5.14826   5.15394   5.16418
 Alpha virt. eigenvalues --    5.16904   5.19166   5.26046   5.61767   5.62502
 Alpha virt. eigenvalues --    5.62907   5.64275   5.65694   5.67780  14.97421
 Alpha virt. eigenvalues --   15.14481
          Condensed to atoms (all electrons):
 Mulliken charges:
               1
     1  C    0.248907
     2  H   -0.403087
     3  H   -0.236307
     4  H   -0.249712
     5  H    0.668110
     6  Bq   0.000000
     7  Bq   0.000000
     8  Bq   0.000000
     9  Bq   0.000000
    10  C    0.322452
    11  H   -0.120836
    12  H   -0.390268
    13  H   -0.123784
    14  H    0.284523
    15  Bq   0.000000
    16  Bq   0.000000
    17  Bq   0.000000
    18  Bq   0.000000
 Sum of Mulliken charges =  -0.00000
 Mulliken charges with hydrogens summed into heavy atoms:
               1
     1  C    0.248907
     6  Bq   0.431804
     7  Bq  -0.249712
     8  Bq  -0.403087
     9  Bq   0.000000
    10  C    0.322452
    15  Bq   0.000000
    16  Bq  -0.123784
    17  Bq  -0.226580
    18  Bq   0.000000
 Electronic spatial extent (au):  <R**2>=            657.2537
 Charge=             -0.0000 electrons
 Dipole moment (field-independent basis, Debye):
    X=              0.0024    Y=              0.0024    Z=              0.0023  Tot=              0.0041

 Test job not archived.
 1\1\GINC-CHIMERA-NODE62\SP\RM05\Gen\C2H8\CONNORNM\08-Dec-2018\0\\#T M0
 5/Gen test Massage SCF=(tight,maxcyc=40)\\M05 opt\\0,1\C,0,0.,0.,0.\H,
 0,0.83330322,0.,-0.72910336\H,0,-0.54719348,0.96039249,-0.06489628\H,0
 ,-0.69073342,-0.83453884,-0.22895026\H,0,0.40462368,-0.12585365,1.0229
 499\Bq,0,-0.55140896,0.,0.48245838\Bq,0,0.36208595,-0.6355058,0.042942
 82\Bq,0,0.45706844,0.55222659,0.15149974\Bq,0,-0.26774543,0.08327921,-
 0.67690095\C,0,0.,0.,4.05120144\H,0,-0.91730177,-0.55613207,3.7768649\
 H,0,-0.24905301,0.7757763,4.80095452\H,0,0.74284309,-0.70118258,4.4784
 1694\H,0,0.42351168,0.48153835,3.14856938\Bq,0,0.60699204,0.36800075,4
 .23273395\Bq,0,0.16480203,-0.51334256,3.55507882\Bq,0,-0.49155017,0.46
 39828,3.76850667\Bq,0,-0.28024389,-0.31864099,4.64848631\\Version=AS64
 L-G09RevD.01\HF=-91.7627583\RMSD=2.885e-09\Dipole=0.0009283,0.0009374,
 0.0009043\Quadrupole=-0.0142287,-0.0132505,0.0274792,-0.0010606,0.0049
 853,0.0020268\PG=C01 [X(C2H8)]\\@



 WE LOSE BECAUSE WE WIN

 GAMBLERS,

 RECOLLECTING WHICH,

 TOSS THEIR DICE AGAIN....


                          EMILY DICKINSON  BOLTS OF MELODY NO. 533
 Job cpu time:       0 days  0 hours 18 minutes 59.7 seconds.
 File lengths (MBytes):  RWF=     41 Int=      0 D2E=      0 Chk=      4 Scr=      1
 Normal termination of Gaussian 09 at Sat Dec  8 13:30:03 2018.
