 Entering Gaussian System, Link 0=/data/szalewicgrp/connornm/opt/Gaussian/g09-M05-par/g09/g09
 AtFile(1): aug-cc-pVTZ.gbs
 Initial command:
 /data/szalewicgrp/connornm/opt/Gaussian/g09-M05-par/g09/l1.exe "/scratch/local/Gau-15466.inp" -scrdir="/scratch/local/"
 Entering Link 1 = /data/szalewicgrp/connornm/opt/Gaussian/g09-M05-par/g09/l1.exe PID=     15467.
  
 Copyright (c) 1988,1990,1992,1993,1995,1998,2003,2009,2013,
            Gaussian, Inc.  All Rights Reserved.
  
 This is part of the Gaussian(R) 09 program.  It is based on
 the Gaussian(R) 03 system (copyright 2003, Gaussian, Inc.),
 the Gaussian(R) 98 system (copyright 1998, Gaussian, Inc.),
 the Gaussian(R) 94 system (copyright 1995, Gaussian, Inc.),
 the Gaussian 92(TM) system (copyright 1992, Gaussian, Inc.),
 the Gaussian 90(TM) system (copyright 1990, Gaussian, Inc.),
 the Gaussian 88(TM) system (copyright 1988, Gaussian, Inc.),
 the Gaussian 86(TM) system (copyright 1986, Carnegie Mellon
 University), and the Gaussian 82(TM) system (copyright 1983,
 Carnegie Mellon University). Gaussian is a federally registered
 trademark of Gaussian, Inc.
  
 This software contains proprietary and confidential information,
 including trade secrets, belonging to Gaussian, Inc.
  
 This software is provided under written license and may be
 used, copied, transmitted, or stored only in accord with that
 written license.
  
 The following legend is applicable only to US Government
 contracts under FAR:
  
                    RESTRICTED RIGHTS LEGEND
  
 Use, reproduction and disclosure by the US Government is
 subject to restrictions as set forth in subparagraphs (a)
 and (c) of the Commercial Computer Software - Restricted
 Rights clause in FAR 52.227-19.
  
 Gaussian, Inc.
 340 Quinnipiac St., Bldg. 40, Wallingford CT 06492
  
  
 ---------------------------------------------------------------
 Warning -- This program may not be used in any manner that
 competes with the business of Gaussian, Inc. or will provide
 assistance to any competitor of Gaussian, Inc.  The licensee
 of this program is prohibited from giving any competitor of
 Gaussian, Inc. access to this program.  By using this program,
 the user acknowledges that Gaussian, Inc. is engaged in the
 business of creating and licensing software in the field of
 computational chemistry and represents and warrants to the
 licensee that it is not a competitor of Gaussian, Inc. and that
 it will not use this program in any manner prohibited above.
 ---------------------------------------------------------------
  

 Cite this work as:
 Gaussian 09, Revision D.01,
 M. J. Frisch, G. W. Trucks, H. B. Schlegel, G. E. Scuseria, 
 M. A. Robb, J. R. Cheeseman, G. Scalmani, V. Barone, B. Mennucci, 
 G. A. Petersson, H. Nakatsuji, M. Caricato, X. Li, H. P. Hratchian, 
 A. F. Izmaylov, J. Bloino, G. Zheng, J. L. Sonnenberg, M. Hada, 
 M. Ehara, K. Toyota, R. Fukuda, J. Hasegawa, M. Ishida, T. Nakajima, 
 Y. Honda, O. Kitao, H. Nakai, T. Vreven, J. A. Montgomery, Jr., 
 J. E. Peralta, F. Ogliaro, M. Bearpark, J. J. Heyd, E. Brothers, 
 K. N. Kudin, V. N. Staroverov, T. Keith, R. Kobayashi, J. Normand, 
 K. Raghavachari, A. Rendell, J. C. Burant, S. S. Iyengar, J. Tomasi, 
 M. Cossi, N. Rega, J. M. Millam, M. Klene, J. E. Knox, J. B. Cross, 
 V. Bakken, C. Adamo, J. Jaramillo, R. Gomperts, R. E. Stratmann, 
 O. Yazyev, A. J. Austin, R. Cammi, C. Pomelli, J. W. Ochterski, 
 R. L. Martin, K. Morokuma, V. G. Zakrzewski, G. A. Voth, 
 P. Salvador, J. J. Dannenberg, S. Dapprich, A. D. Daniels, 
 O. Farkas, J. B. Foresman, J. V. Ortiz, J. Cioslowski, 
 and D. J. Fox, Gaussian, Inc., Wallingford CT, 2013.
 
 ******************************************
 Gaussian 09:  AS64L-G09RevD.01 24-Apr-2013
                 5-Dec-2018 
 ******************************************
 %Chk=CH400241
 %Mem=2GB
 %NProcShared=16
 Will use up to   16 processors via shared memory.
 -----------------------------------------------------------
 #T M05/Gen test Massage Symmetry=None SCF=(tight,maxcyc=60)
 -----------------------------------------------------------
 -------
 M05 opt
 -------
 Symbolic Z-matrix:
 Charge =  0 Multiplicity = 1
 6                     0.        0.        0. 
 1                     1.09082   0.        0.18997 
 1                    -0.45113   0.9108    0.43923 
 1                    -0.18452  -0.01363  -1.09168 
 1                    -0.45518  -0.89717   0.46248 
 0                    -0.72181   0.       -0.12571 
 0                     0.29852  -0.60269  -0.29064 
 0                     0.1221    0.00902   0.72238 
 0                     0.3012    0.59367  -0.30603 
 6                     0.        0.        3.79855 
 1                     0.7893    0.61386   3.32298 
 1                     0.07707   0.08818   4.89958 
 1                    -0.99462   0.35736   3.46839 
 1                     0.12825  -1.05941   3.50326 
 0                    -0.52229  -0.4062    4.11325 
 0                    -0.051    -0.05835   3.06999 
 0                     0.65816  -0.23647   4.01703 
 0                    -0.08487   0.70102   3.99395 
 
                    Distance matrix (angstroms):
                    1          2          3          4          5
     1  C    0.000000
     2  H    1.107242   0.000000
     3  H    1.107242   1.808119   0.000000
     4  H    1.107242   1.808119   1.808119   0.000000
     5  H    1.107243   1.808119   1.808119   1.808119   0.000000
     6  Bq   0.732679   1.839921   1.105427   1.105427   1.105427
     7  Bq   0.732679   1.105427   1.839921   1.105427   1.105427
     8  Bq   0.732679   1.105427   1.105427   1.839921   1.105427
     9  Bq   0.732679   1.105427   1.105427   1.105427   1.839921
    10  C    3.798554   3.769848   3.509723   4.893727   3.484467
    11  H    3.470156   3.206782   3.153228   4.564120   3.466176
    12  H    4.900984   4.818290   4.566234   5.997832   4.576258
    13  H    3.625841   3.901899   3.126903   4.646301   3.301571
    14  H    3.662190   3.609262   3.688591   4.722809   3.100498
    15  Bq   4.166127   4.261366   3.903589   5.230627   3.684250
    16  Bq   3.070963   3.098651   2.832005   4.164042   2.768768
    17  Bq   4.077449   3.858687   3.917576   5.182527   3.782969
    18  Bq   4.055896   4.042764   3.579698   5.136561   3.893927
                    6          7          8          9         10
     6  Bq   0.000000
     7  Bq   1.196459   0.000000
     8  Bq   1.196459   1.196459   0.000000
     9  Bq   1.196459   1.196459   1.196459   0.000000
    10  C    3.990093   4.144136   3.078612   4.158215   0.000000
    11  H    3.814931   3.844357   2.752109   3.661737   1.107243
    12  H    5.089161   5.240686   4.178200   5.234898   1.107243
    13  H    3.622110   4.089528   2.984794   3.997653   1.107243
    14  H    3.874839   3.825087   2.979075   4.156111   1.107242
    15  Bq   4.263048   4.484038   3.476443   4.605203   0.732679
    16  Bq   3.265861   3.422320   2.354944   3.456391   0.732679
    17  Bq   4.372926   4.338140   3.346989   4.416487   0.732679
    18  Bq   4.227143   4.494930   3.350360   4.318611   0.732679
                   11         12         13         14         15
    11  H    0.000000
    12  H    1.808119   0.000000
    13  H    1.808119   1.808119   0.000000
    14  H    1.808119   1.808119   1.808119   0.000000
    15  Bq   1.839921   1.105427   1.105427   1.105427   0.000000
    16  Bq   1.105427   1.839921   1.105427   1.105427   1.196459
    17  Bq   1.105427   1.105427   1.839921   1.105427   1.196459
    18  Bq   1.105427   1.105427   1.105427   1.839921   1.196459
                   16         17         18
    16  Bq   0.000000
    17  Bq   1.196459   0.000000
    18  Bq   1.196459   1.196459   0.000000
 Symmetry turned off by external request.
 Rotational constants (GHZ):     76.6916056      4.1340589      4.1340589
 Warning:  center   6 has no basis functions!
 Warning:  center   7 has no basis functions!
 Warning:  center   8 has no basis functions!
 Warning:  center   9 has no basis functions!
 Warning:  center  15 has no basis functions!
 Warning:  center  16 has no basis functions!
 Warning:  center  17 has no basis functions!
 Warning:  center  18 has no basis functions!
   276 basis functions,   360 primitive gaussians,   310 cartesian basis functions
    10 alpha electrons       10 beta electrons
       nuclear repulsion energy        40.2627062913 Hartrees.
 IMHF & INEx in M05                  614413                  385587
 NAtoms=   18 NActive=   18 NUniq=   18 SFac= 1.00D+00 NAtFMM=   60 NAOKFM=F Big=F
 ExpMin= 2.53D-02 ExpMax= 8.24D+03 ExpMxC= 2.81D+02 IAcc=3 IRadAn=         5 AccDes= 0.00D+00
 Harris functional with IExCor= 1009 and IRadAn=       5 diagonalized for initial guess.
 HarFok:  IExCor= 1009 AccDes= 0.00D+00 IRadAn=         5 IDoV= 1 UseB2=F ITyADJ=14
 ICtDFT=  3500011 ScaDFX=  1.000000  1.000000  1.000000  1.000000
 FoFCou: FMM=F IPFlag=           0 FMFlag=      100000 FMFlg1=           0
         NFxFlg=           0 DoJE=T BraDBF=F KetDBF=T FulRan=T
         wScrn=  0.000000 ICntrl=     500 IOpCl=  0 I1Cent=   200000004 NGrid=           0
         NMat0=    1 NMatS0=      1 NMatT0=    0 NMatD0=    1 NMtDS0=    0 NMtDT0=    0
 Symmetry not used in FoFCou.
 SCF Done:  E(RM05) =  -81.8238628025     A.U. after    8 cycles
            NFock=  8  Conv=0.29D-08     -V/T= 2.0127

 **********************************************************************

            Population analysis using the SCF density.

 **********************************************************************

 Alpha  occ. eigenvalues --  -10.74460 -10.74455  -0.82904  -0.82515  -0.49251
 Alpha  occ. eigenvalues --   -0.48980  -0.48924  -0.48469  -0.48411  -0.48112
 Alpha virt. eigenvalues --   -0.00526   0.01318   0.02434   0.02466   0.03601
 Alpha virt. eigenvalues --    0.04625   0.04724   0.06139   0.07518   0.07704
 Alpha virt. eigenvalues --    0.08825   0.10488   0.10502   0.10691   0.12014
 Alpha virt. eigenvalues --    0.12826   0.13245   0.14979   0.15648   0.16008
 Alpha virt. eigenvalues --    0.16074   0.17093   0.17416   0.21809   0.22182
 Alpha virt. eigenvalues --    0.24957   0.25423   0.25626   0.25923   0.25954
 Alpha virt. eigenvalues --    0.27272   0.28453   0.28560   0.30057   0.30512
 Alpha virt. eigenvalues --    0.31330   0.31566   0.31878   0.32023   0.33782
 Alpha virt. eigenvalues --    0.34514   0.34796   0.35166   0.36350   0.36720
 Alpha virt. eigenvalues --    0.36912   0.37040   0.40006   0.40379   0.41249
 Alpha virt. eigenvalues --    0.41640   0.42317   0.43021   0.44295   0.45645
 Alpha virt. eigenvalues --    0.46311   0.46549   0.49748   0.58125   0.58606
 Alpha virt. eigenvalues --    0.60751   0.63693   0.64571   0.66573   0.66824
 Alpha virt. eigenvalues --    0.70840   0.71497   0.72655   0.73930   0.74292
 Alpha virt. eigenvalues --    0.76700   0.76995   0.77996   0.78800   0.79389
 Alpha virt. eigenvalues --    0.79438   0.80259   0.80811   0.82396   0.83998
 Alpha virt. eigenvalues --    0.85166   0.85758   0.86571   0.87184   0.87387
 Alpha virt. eigenvalues --    0.88078   0.88600   0.89354   0.90574   0.92278
 Alpha virt. eigenvalues --    0.93045   0.94084   0.94803   0.95559   0.96358
 Alpha virt. eigenvalues --    0.98186   0.98892   0.99811   1.00895   1.01610
 Alpha virt. eigenvalues --    1.03278   1.03498   1.05008   1.06915   1.09857
 Alpha virt. eigenvalues --    1.11041   1.11202   1.12087   1.13768   1.14000
 Alpha virt. eigenvalues --    1.16348   1.16922   1.20814   1.22846   1.24878
 Alpha virt. eigenvalues --    1.28013   1.30000   1.35502   1.43070   1.43770
 Alpha virt. eigenvalues --    1.44460   1.44779   1.45181   1.46484   1.46975
 Alpha virt. eigenvalues --    1.47753   1.48869   1.49736   1.50775   1.53450
 Alpha virt. eigenvalues --    1.54348   1.57046   1.59016   1.59959   1.60076
 Alpha virt. eigenvalues --    1.63757   1.64428   1.68549   1.69159   1.69670
 Alpha virt. eigenvalues --    1.72180   1.73331   1.74105   1.74974   1.76130
 Alpha virt. eigenvalues --    1.77886   1.79800   1.81747   1.82566   1.83900
 Alpha virt. eigenvalues --    1.94114   1.94495   1.96810   1.97843   2.00422
 Alpha virt. eigenvalues --    2.00551   2.04003   2.04633   2.08230   2.08624
 Alpha virt. eigenvalues --    2.39688   2.41364   2.60305   2.80333   2.87008
 Alpha virt. eigenvalues --    2.87988   2.88065   2.88893   2.90847   2.99080
 Alpha virt. eigenvalues --    3.17053   3.17481   3.19451   3.20754   3.21152
 Alpha virt. eigenvalues --    3.21514   3.22647   3.23540   3.25812   3.26215
 Alpha virt. eigenvalues --    3.27485   3.27707   3.28340   3.29609   3.30745
 Alpha virt. eigenvalues --    3.50201   3.58054   3.58251   3.58364   3.58726
 Alpha virt. eigenvalues --    3.58894   3.62907   3.68054   3.70044   3.71212
 Alpha virt. eigenvalues --    3.71406   3.72170   3.72759   3.73207   3.74451
 Alpha virt. eigenvalues --    3.75270   3.77516   3.78624   3.81039   3.81423
 Alpha virt. eigenvalues --    3.82735   3.85217   3.86219   3.87557   3.89820
 Alpha virt. eigenvalues --    4.17851   4.18715   4.19212   4.19482   4.20787
 Alpha virt. eigenvalues --    4.22424   4.32362   4.32691   4.33542   4.33925
 Alpha virt. eigenvalues --    4.36757   4.37162   4.38000   4.41265   4.42839
 Alpha virt. eigenvalues --    4.43560   4.49456   4.49686   4.50273   4.50492
 Alpha virt. eigenvalues --    4.52034   4.54696   4.77819   4.78237   4.78595
 Alpha virt. eigenvalues --    4.79155   4.79585   4.80256   4.81634   4.82464
 Alpha virt. eigenvalues --    5.13834   5.14852   5.15074   5.15507   5.15761
 Alpha virt. eigenvalues --    5.16189   5.23213   5.25061   5.31933   5.32324
 Alpha virt. eigenvalues --    5.32612   5.32985   5.58112   5.58417   5.58663
 Alpha virt. eigenvalues --    5.58887   5.59328   5.61296   6.04118   6.05144
 Alpha virt. eigenvalues --    6.05434   6.05572   6.10620   6.12946  16.64599
 Alpha virt. eigenvalues --   16.90923
          Condensed to atoms (all electrons):
 Mulliken charges:
               1
     1  C   -1.909059
     2  H    0.488792
     3  H    0.480155
     4  H    0.446738
     5  H    0.492640
     6  Bq   0.000000
     7  Bq   0.000000
     8  Bq   0.000000
     9  Bq   0.000000
    10  C   -1.912108
    11  H    0.490991
    12  H    0.450101
    13  H    0.480228
    14  H    0.491522
    15  Bq   0.000000
    16  Bq   0.000000
    17  Bq   0.000000
    18  Bq   0.000000
 Sum of Mulliken charges =  -0.00000
 Mulliken charges with hydrogens summed into heavy atoms:
               1
     1  C   -1.909059
     6  Bq   0.446738
     7  Bq   0.488792
     8  Bq   0.492640
     9  Bq   0.480155
    10  C   -1.912108
    15  Bq   0.930329
    16  Bq   0.000000
    17  Bq   0.491522
    18  Bq   0.490991
 Electronic spatial extent (au):  <R**2>=            588.4516
 Charge=             -0.0000 electrons
 Dipole moment (field-independent basis, Debye):
    X=              0.0003    Y=             -0.0001    Z=              0.0010  Tot=              0.0010

 Test job not archived.
 1\1\GINC-CHIMERA-NODE53\SP\RM05\Gen\C2H8\CONNORNM\05-Dec-2018\0\\#T M0
 5/Gen test Massage Symmetry=None SCF=(tight,maxcyc=60)\\M05 opt\\0,1\C
 ,0,0.,0.,0.\H,0,1.09082369,0.,0.18997271\H,0,-0.45112953,0.91079599,0.
 43922518\H,0,-0.18451517,-0.0136266,-1.09167505\H,0,-0.45517899,-0.897
 16939,0.46247717\Bq,0,-0.72181404,0.,-0.12570773\Bq,0,0.29851903,-0.60
 268707,-0.29064174\Bq,0,0.12209639,0.00901692,0.7223774\Bq,0,0.3011986
 1,0.59367015,-0.30602792\C,0,0.,0.,3.7985537\H,0,0.78929633,0.61385904
 ,3.32297579\H,0,0.07707139,0.08818305,4.89958491\H,0,-0.99462074,0.357
 36347,3.46839178\H,0,0.12825302,-1.05940555,3.50326234\Bq,0,-0.5222889
 6,-0.40619953,4.11325058\Bq,0,-0.05099927,-0.05835202,3.06998521\Bq,0,
 0.65815513,-0.23647265,4.01702669\Bq,0,-0.0848669,0.7010242,3.99395233
 \\Version=AS64L-G09RevD.01\HF=-81.8238628\RMSD=2.938e-09\Dipole=0.0001
 284,-0.0000297,0.0003902\Quadrupole=0.030549,0.0304361,-0.0609851,0.00
 01312,0.002877,0.0010745\PG=Unknown\\@


 TO BEHOLD HARMS OF OUR OWN HANDS DOING,
 WHERE NONE BESIDE US WROUGHT,
 CAUSES SHARP RUING...

                                         SOPHOCLES
 Job cpu time:       0 days  0 hours 13 minutes 16.5 seconds.
 File lengths (MBytes):  RWF=     41 Int=      0 D2E=      0 Chk=      4 Scr=      1
 Normal termination of Gaussian 09 at Wed Dec  5 21:23:37 2018.
