 Entering Gaussian System, Link 0=/data/szalewicgrp/connornm/opt/Gaussian/g09-M05-par/g09/g09
 AtFile(1): aug-cc-pVTZ.gbs
 Initial command:
 /data/szalewicgrp/connornm/opt/Gaussian/g09-M05-par/g09/l1.exe "/scratch/local/Gau-49019.inp" -scrdir="/scratch/local/"
 Entering Link 1 = /data/szalewicgrp/connornm/opt/Gaussian/g09-M05-par/g09/l1.exe PID=     49020.
  
 Copyright (c) 1988,1990,1992,1993,1995,1998,2003,2009,2013,
            Gaussian, Inc.  All Rights Reserved.
  
 This is part of the Gaussian(R) 09 program.  It is based on
 the Gaussian(R) 03 system (copyright 2003, Gaussian, Inc.),
 the Gaussian(R) 98 system (copyright 1998, Gaussian, Inc.),
 the Gaussian(R) 94 system (copyright 1995, Gaussian, Inc.),
 the Gaussian 92(TM) system (copyright 1992, Gaussian, Inc.),
 the Gaussian 90(TM) system (copyright 1990, Gaussian, Inc.),
 the Gaussian 88(TM) system (copyright 1988, Gaussian, Inc.),
 the Gaussian 86(TM) system (copyright 1986, Carnegie Mellon
 University), and the Gaussian 82(TM) system (copyright 1983,
 Carnegie Mellon University). Gaussian is a federally registered
 trademark of Gaussian, Inc.
  
 This software contains proprietary and confidential information,
 including trade secrets, belonging to Gaussian, Inc.
  
 This software is provided under written license and may be
 used, copied, transmitted, or stored only in accord with that
 written license.
  
 The following legend is applicable only to US Government
 contracts under FAR:
  
                    RESTRICTED RIGHTS LEGEND
  
 Use, reproduction and disclosure by the US Government is
 subject to restrictions as set forth in subparagraphs (a)
 and (c) of the Commercial Computer Software - Restricted
 Rights clause in FAR 52.227-19.
  
 Gaussian, Inc.
 340 Quinnipiac St., Bldg. 40, Wallingford CT 06492
  
  
 ---------------------------------------------------------------
 Warning -- This program may not be used in any manner that
 competes with the business of Gaussian, Inc. or will provide
 assistance to any competitor of Gaussian, Inc.  The licensee
 of this program is prohibited from giving any competitor of
 Gaussian, Inc. access to this program.  By using this program,
 the user acknowledges that Gaussian, Inc. is engaged in the
 business of creating and licensing software in the field of
 computational chemistry and represents and warrants to the
 licensee that it is not a competitor of Gaussian, Inc. and that
 it will not use this program in any manner prohibited above.
 ---------------------------------------------------------------
  

 Cite this work as:
 Gaussian 09, Revision D.01,
 M. J. Frisch, G. W. Trucks, H. B. Schlegel, G. E. Scuseria, 
 M. A. Robb, J. R. Cheeseman, G. Scalmani, V. Barone, B. Mennucci, 
 G. A. Petersson, H. Nakatsuji, M. Caricato, X. Li, H. P. Hratchian, 
 A. F. Izmaylov, J. Bloino, G. Zheng, J. L. Sonnenberg, M. Hada, 
 M. Ehara, K. Toyota, R. Fukuda, J. Hasegawa, M. Ishida, T. Nakajima, 
 Y. Honda, O. Kitao, H. Nakai, T. Vreven, J. A. Montgomery, Jr., 
 J. E. Peralta, F. Ogliaro, M. Bearpark, J. J. Heyd, E. Brothers, 
 K. N. Kudin, V. N. Staroverov, T. Keith, R. Kobayashi, J. Normand, 
 K. Raghavachari, A. Rendell, J. C. Burant, S. S. Iyengar, J. Tomasi, 
 M. Cossi, N. Rega, J. M. Millam, M. Klene, J. E. Knox, J. B. Cross, 
 V. Bakken, C. Adamo, J. Jaramillo, R. Gomperts, R. E. Stratmann, 
 O. Yazyev, A. J. Austin, R. Cammi, C. Pomelli, J. W. Ochterski, 
 R. L. Martin, K. Morokuma, V. G. Zakrzewski, G. A. Voth, 
 P. Salvador, J. J. Dannenberg, S. Dapprich, A. D. Daniels, 
 O. Farkas, J. B. Foresman, J. V. Ortiz, J. Cioslowski, 
 and D. J. Fox, Gaussian, Inc., Wallingford CT, 2013.
 
 ******************************************
 Gaussian 09:  AS64L-G09RevD.01 24-Apr-2013
                 7-Dec-2018 
 ******************************************
 %Chk=CH400107
 %Mem=2GB
 %NProcShared=16
 Will use up to   16 processors via shared memory.
 ---------------------------------------------
 #T M05/Gen test Massage SCF=(tight,maxcyc=40)
 ---------------------------------------------
 -------
 M05 opt
 -------
 Symbolic Z-matrix:
 Charge =  0 Multiplicity = 1
 6                     0.        0.        0. 
 1                     0.89362   0.       -0.65379 
 1                    -0.69304   0.80117  -0.3222 
 1                    -0.50997  -0.98017  -0.07198 
 1                     0.3094    0.179     1.04796 
 0                    -0.59132   0.        0.43262 
 0                     0.45859  -0.53015   0.2132 
 0                     0.33746   0.64859   0.04763 
 0                    -0.20473  -0.11845  -0.69345 
 6                     0.        0.        3.86538 
 1                     0.47198  -0.96589   3.60027 
 1                     0.5388    0.825     3.36035 
 1                    -1.05799  -0.00427   3.53885 
 1                     0.04721   0.14515   4.96205 
 0                    -0.31232   0.63914   4.04081 
 0                    -0.35653  -0.54591   4.19956 
 0                     0.70009   0.00282   4.08145 
 0                    -0.03124  -0.09605   3.1397 
 
                    Distance matrix (angstroms):
                    1          2          3          4          5
     1  C    0.000000
     2  H    1.107242   0.000000
     3  H    1.107242   1.808119   0.000000
     4  H    1.107243   1.808119   1.808119   0.000000
     5  H    1.107243   1.808119   1.808119   1.808119   0.000000
     6  Bq   0.732679   1.839921   1.105427   1.105427   1.105427
     7  Bq   0.732679   1.105427   1.839921   1.105427   1.105427
     8  Bq   0.732679   1.105427   1.105427   1.839921   1.105427
     9  Bq   0.732679   1.105427   1.105427   1.105427   1.839921
    10  C    3.865380   4.606671   4.319486   4.089448   2.840004
    11  H    3.757342   4.382658   4.457069   3.801291   2.802047
    12  H    3.501843   4.113373   3.883190   4.017395   2.411868
    13  H    3.693618   4.624606   3.961007   3.780314   2.847430
    14  H    4.964398   5.681119   5.376019   5.188280   3.923009
    15  Bq   4.102948   4.888967   4.382580   4.424506   3.091181
    16  Bq   4.249879   5.041419   4.730135   4.296299   3.301752
    17  Bq   4.141059   4.739191   4.687244   4.436382   3.063616
    18  Bq   3.141320   3.905777   3.636987   3.365368   2.137064
                    6          7          8          9         10
     6  Bq   0.000000
     7  Bq   1.196459   0.000000
     8  Bq   1.196459   1.196459   0.000000
     9  Bq   1.196459   1.196459   1.196459   0.000000
    10  C    3.483317   3.718840   3.887129   4.564962   0.000000
    11  H    3.478149   3.415005   3.904597   4.428555   1.107243
    12  H    3.244907   3.427451   3.323523   4.228032   1.107243
    13  H    3.141091   3.692764   3.816034   4.318963   1.107243
    14  H    4.576519   4.814233   4.948661   5.667244   1.107242
    15  Bq   3.674965   4.075796   4.045712   4.795699   0.732679
    16  Bq   3.813529   4.068878   4.375732   4.913996   0.732679
    17  Bq   3.870620   3.912253   4.101249   4.861387   0.732679
    18  Bq   2.766076   2.998791   3.201767   3.837136   0.732679
                   11         12         13         14         15
    11  H    0.000000
    12  H    1.808119   0.000000
    13  H    1.808119   1.808119   0.000000
    14  H    1.808119   1.808119   1.808119   0.000000
    15  Bq   1.839921   1.105427   1.105427   1.105427   0.000000
    16  Bq   1.105427   1.839921   1.105427   1.105427   1.196459
    17  Bq   1.105427   1.105427   1.839921   1.105427   1.196459
    18  Bq   1.105427   1.105427   1.105427   1.839921   1.196459
                   16         17         18
    16  Bq   0.000000
    17  Bq   1.196459   0.000000
    18  Bq   1.196459   1.196459   0.000000
 Symmetry turned off by external request.
 Symmetry turned off:
 Cannot cope with ghost atoms or with translation vectors.
 Framework group  C1[X(C2H8)]
 NUMDOF-- NAT=    10 NAtoms=    18
 Deg. of freedom     0
 Rotational constants (GHZ):     76.6916058      3.9997428      3.9997428
 Warning:  center   6 has no basis functions!
 Warning:  center   7 has no basis functions!
 Warning:  center   8 has no basis functions!
 Warning:  center   9 has no basis functions!
 Warning:  center  15 has no basis functions!
 Warning:  center  16 has no basis functions!
 Warning:  center  17 has no basis functions!
 Warning:  center  18 has no basis functions!
   276 basis functions,   360 primitive gaussians,   310 cartesian basis functions
    10 alpha electrons       10 beta electrons
       nuclear repulsion energy        40.1362511437 Hartrees.
 IMHF & INEx in M05                  614413                  385587
 NAtoms=   18 NActive=   18 NUniq=   18 SFac= 1.00D+00 NAtFMM=   60 NAOKFM=F Big=F
 ExpMin= 2.53D-02 ExpMax= 8.24D+03 ExpMxC= 2.81D+02 IAcc=3 IRadAn=         5 AccDes= 0.00D+00
 Harris functional with IExCor= 1009 and IRadAn=       5 diagonalized for initial guess.
 HarFok:  IExCor= 1009 AccDes= 0.00D+00 IRadAn=         5 IDoV= 1 UseB2=F ITyADJ=14
 ICtDFT=  3500011 ScaDFX=  1.000000  1.000000  1.000000  1.000000
 FoFCou: FMM=F IPFlag=           0 FMFlag=      100000 FMFlg1=           0
         NFxFlg=           0 DoJE=T BraDBF=F KetDBF=T FulRan=T
         wScrn=  0.000000 ICntrl=     500 IOpCl=  0 I1Cent=   200000004 NGrid=           0
         NMat0=    1 NMatS0=      1 NMatT0=    0 NMatD0=    1 NMtDS0=    0 NMtDT0=    0
 Symmetry not used in FoFCou.
 SCF Done:  E(RM05) =  -81.8232233046     A.U. after    9 cycles
            NFock=  9  Conv=0.14D-08     -V/T= 2.0126

 **********************************************************************

            Population analysis using the SCF density.

 **********************************************************************

 Alpha  occ. eigenvalues --  -10.74592 -10.74325  -0.83029  -0.82484  -0.49859
 Alpha  occ. eigenvalues --   -0.48929  -0.48884  -0.48569  -0.48537  -0.47590
 Alpha virt. eigenvalues --   -0.00485   0.01317   0.02338   0.02380   0.03850
 Alpha virt. eigenvalues --    0.04354   0.04462   0.06747   0.07834   0.08294
 Alpha virt. eigenvalues --    0.09028   0.09788   0.10300   0.10704   0.11664
 Alpha virt. eigenvalues --    0.13263   0.14203   0.15053   0.15349   0.15510
 Alpha virt. eigenvalues --    0.15795   0.16502   0.17471   0.21689   0.22690
 Alpha virt. eigenvalues --    0.24458   0.25866   0.26148   0.26653   0.27155
 Alpha virt. eigenvalues --    0.27633   0.27956   0.29119   0.29592   0.29906
 Alpha virt. eigenvalues --    0.30794   0.31544   0.32912   0.33017   0.33574
 Alpha virt. eigenvalues --    0.33732   0.34314   0.35250   0.35442   0.36564
 Alpha virt. eigenvalues --    0.37002   0.37382   0.39144   0.40609   0.41227
 Alpha virt. eigenvalues --    0.41682   0.42061   0.43979   0.45441   0.46426
 Alpha virt. eigenvalues --    0.47841   0.49978   0.53696   0.57954   0.59735
 Alpha virt. eigenvalues --    0.62726   0.63324   0.65512   0.67046   0.69280
 Alpha virt. eigenvalues --    0.70529   0.71180   0.71999   0.72524   0.73509
 Alpha virt. eigenvalues --    0.75140   0.76993   0.77345   0.78272   0.78920
 Alpha virt. eigenvalues --    0.79871   0.80833   0.81333   0.82471   0.84403
 Alpha virt. eigenvalues --    0.86084   0.86136   0.86611   0.87522   0.87610
 Alpha virt. eigenvalues --    0.88175   0.90154   0.91137   0.92653   0.94244
 Alpha virt. eigenvalues --    0.95155   0.95607   0.96260   0.96873   0.97760
 Alpha virt. eigenvalues --    0.97964   0.99096   1.00959   1.01511   1.02094
 Alpha virt. eigenvalues --    1.02761   1.05223   1.05831   1.07107   1.09522
 Alpha virt. eigenvalues --    1.10864   1.11707   1.12520   1.13127   1.15822
 Alpha virt. eigenvalues --    1.16151   1.18405   1.21485   1.25052   1.27055
 Alpha virt. eigenvalues --    1.29026   1.34262   1.40695   1.44017   1.44427
 Alpha virt. eigenvalues --    1.44640   1.45101   1.45872   1.46445   1.47295
 Alpha virt. eigenvalues --    1.47773   1.49595   1.50520   1.50753   1.54136
 Alpha virt. eigenvalues --    1.55767   1.58269   1.59790   1.60576   1.61335
 Alpha virt. eigenvalues --    1.64160   1.65743   1.66930   1.68037   1.69848
 Alpha virt. eigenvalues --    1.71101   1.72754   1.74901   1.75822   1.76556
 Alpha virt. eigenvalues --    1.81687   1.82437   1.85509   1.85794   1.87935
 Alpha virt. eigenvalues --    1.95039   1.95362   1.99087   2.00154   2.01267
 Alpha virt. eigenvalues --    2.03889   2.05896   2.07508   2.11911   2.17465
 Alpha virt. eigenvalues --    2.38880   2.53642   2.77285   2.82916   2.87336
 Alpha virt. eigenvalues --    2.87806   2.88863   2.92282   2.92781   2.96709
 Alpha virt. eigenvalues --    3.18002   3.19461   3.20599   3.21070   3.21855
 Alpha virt. eigenvalues --    3.22873   3.24017   3.25161   3.26394   3.26811
 Alpha virt. eigenvalues --    3.28129   3.29070   3.29973   3.32933   3.36365
 Alpha virt. eigenvalues --    3.44887   3.57785   3.58515   3.58859   3.59215
 Alpha virt. eigenvalues --    3.60432   3.68953   3.70938   3.71390   3.71439
 Alpha virt. eigenvalues --    3.71828   3.72680   3.72813   3.74442   3.76083
 Alpha virt. eigenvalues --    3.78194   3.79759   3.81406   3.81833   3.82715
 Alpha virt. eigenvalues --    3.84464   3.85199   3.86441   3.89310   3.94779
 Alpha virt. eigenvalues --    4.18157   4.18853   4.19634   4.19999   4.21528
 Alpha virt. eigenvalues --    4.22447   4.32813   4.33161   4.34535   4.35757
 Alpha virt. eigenvalues --    4.36979   4.38723   4.40634   4.41919   4.44304
 Alpha virt. eigenvalues --    4.45603   4.49443   4.50017   4.51462   4.52561
 Alpha virt. eigenvalues --    4.54808   4.56244   4.77719   4.78077   4.79141
 Alpha virt. eigenvalues --    4.79219   4.81424   4.82148   4.83181   4.95748
 Alpha virt. eigenvalues --    5.14143   5.14367   5.15118   5.15518   5.16139
 Alpha virt. eigenvalues --    5.18017   5.24008   5.24663   5.32115   5.32397
 Alpha virt. eigenvalues --    5.33126   5.33489   5.57474   5.58277   5.58458
 Alpha virt. eigenvalues --    5.59109   5.60500   5.66381   6.03786   6.04471
 Alpha virt. eigenvalues --    6.06127   6.08532   6.09502   6.13258  16.84356
 Alpha virt. eigenvalues --   17.11765
          Condensed to atoms (all electrons):
 Mulliken charges:
               1
     1  C   -1.927577
     2  H    0.408191
     3  H    0.423630
     4  H    0.404765
     5  H    0.697307
     6  Bq   0.000000
     7  Bq   0.000000
     8  Bq   0.000000
     9  Bq   0.000000
    10  C   -1.879978
    11  H    0.483576
    12  H    0.463743
    13  H    0.498836
    14  H    0.427505
    15  Bq   0.000000
    16  Bq   0.000000
    17  Bq   0.000000
    18  Bq   0.000000
 Sum of Mulliken charges =  -0.00000
 Mulliken charges with hydrogens summed into heavy atoms:
               1
     1  C   -1.927577
     6  Bq   0.697307
     7  Bq   0.404765
     8  Bq   0.000000
     9  Bq   0.831822
    10  C   -1.879978
    15  Bq   0.427505
    16  Bq   0.982413
    17  Bq   0.000000
    18  Bq   0.463743
 Electronic spatial extent (au):  <R**2>=            606.5623
 Charge=             -0.0000 electrons
 Dipole moment (field-independent basis, Debye):
    X=             -0.0051    Y=             -0.0036    Z=              0.0591  Tot=              0.0594

 Test job not archived.
 1\1\GINC-CHIMERA-NODE48\SP\RM05\Gen\C2H8\CONNORNM\07-Dec-2018\0\\#T M0
 5/Gen test Massage SCF=(tight,maxcyc=40)\\M05 opt\\0,1\C,0,0.,0.,0.\H,
 0,0.89361543,0.,-0.65378698\H,0,-0.69303763,0.80117098,-0.32219537\H,0
 ,-0.50997324,-0.98016962,-0.07197753\H,0,0.30939543,0.17899864,1.04795
 988\Bq,0,-0.59131844,0.,0.43262043\Bq,0,0.45859316,-0.53014659,0.21320
 14\Bq,0,0.33745677,0.64859262,0.04762859\Bq,0,-0.2047315,-0.11844602,-
 0.69345042\C,0,0.,0.,3.8653798\H,0,0.47197905,-0.96588653,3.60026672\H
 ,0,0.53880444,0.82499919,3.360353\H,0,-1.05799099,-0.00426534,3.538848
 29\H,0,0.04720749,0.14515267,4.96205117\Bq,0,-0.31231546,0.63914128,4.
 04080901\Bq,0,-0.3565348,-0.54591407,4.19956343\Bq,0,0.70008816,0.0028
 2244,4.08145048\Bq,0,-0.03123789,-0.09604965,3.13969626\\Version=AS64L
 -G09RevD.01\HF=-81.8232233\RMSD=1.421e-09\Dipole=-0.001999,-0.001419,0
 .0232427\Quadrupole=-0.0217107,-0.0220624,0.0437731,-0.000338,-0.01481
 41,-0.0094461\PG=C01 [X(C2H8)]\\@


 MEN HAVE BECOME THE TOOLS OF THEIR TOOLS... THOREAU   
 Job cpu time:       0 days  0 hours 14 minutes 34.5 seconds.
 File lengths (MBytes):  RWF=     41 Int=      0 D2E=      0 Chk=      4 Scr=      1
 Normal termination of Gaussian 09 at Fri Dec  7 22:15:57 2018.
