 Entering Gaussian System, Link 0=/data/szalewicgrp/connornm/opt/Gaussian/g09-M05-par/g09/g09
 AtFile(1): aug-cc-pVTZ.gbs
 Initial command:
 /data/szalewicgrp/connornm/opt/Gaussian/g09-M05-par/g09/l1.exe "/scratch/local/Gau-41722.inp" -scrdir="/scratch/local/"
 Entering Link 1 = /data/szalewicgrp/connornm/opt/Gaussian/g09-M05-par/g09/l1.exe PID=     41723.
  
 Copyright (c) 1988,1990,1992,1993,1995,1998,2003,2009,2013,
            Gaussian, Inc.  All Rights Reserved.
  
 This is part of the Gaussian(R) 09 program.  It is based on
 the Gaussian(R) 03 system (copyright 2003, Gaussian, Inc.),
 the Gaussian(R) 98 system (copyright 1998, Gaussian, Inc.),
 the Gaussian(R) 94 system (copyright 1995, Gaussian, Inc.),
 the Gaussian 92(TM) system (copyright 1992, Gaussian, Inc.),
 the Gaussian 90(TM) system (copyright 1990, Gaussian, Inc.),
 the Gaussian 88(TM) system (copyright 1988, Gaussian, Inc.),
 the Gaussian 86(TM) system (copyright 1986, Carnegie Mellon
 University), and the Gaussian 82(TM) system (copyright 1983,
 Carnegie Mellon University). Gaussian is a federally registered
 trademark of Gaussian, Inc.
  
 This software contains proprietary and confidential information,
 including trade secrets, belonging to Gaussian, Inc.
  
 This software is provided under written license and may be
 used, copied, transmitted, or stored only in accord with that
 written license.
  
 The following legend is applicable only to US Government
 contracts under FAR:
  
                    RESTRICTED RIGHTS LEGEND
  
 Use, reproduction and disclosure by the US Government is
 subject to restrictions as set forth in subparagraphs (a)
 and (c) of the Commercial Computer Software - Restricted
 Rights clause in FAR 52.227-19.
  
 Gaussian, Inc.
 340 Quinnipiac St., Bldg. 40, Wallingford CT 06492
  
  
 ---------------------------------------------------------------
 Warning -- This program may not be used in any manner that
 competes with the business of Gaussian, Inc. or will provide
 assistance to any competitor of Gaussian, Inc.  The licensee
 of this program is prohibited from giving any competitor of
 Gaussian, Inc. access to this program.  By using this program,
 the user acknowledges that Gaussian, Inc. is engaged in the
 business of creating and licensing software in the field of
 computational chemistry and represents and warrants to the
 licensee that it is not a competitor of Gaussian, Inc. and that
 it will not use this program in any manner prohibited above.
 ---------------------------------------------------------------
  

 Cite this work as:
 Gaussian 09, Revision D.01,
 M. J. Frisch, G. W. Trucks, H. B. Schlegel, G. E. Scuseria, 
 M. A. Robb, J. R. Cheeseman, G. Scalmani, V. Barone, B. Mennucci, 
 G. A. Petersson, H. Nakatsuji, M. Caricato, X. Li, H. P. Hratchian, 
 A. F. Izmaylov, J. Bloino, G. Zheng, J. L. Sonnenberg, M. Hada, 
 M. Ehara, K. Toyota, R. Fukuda, J. Hasegawa, M. Ishida, T. Nakajima, 
 Y. Honda, O. Kitao, H. Nakai, T. Vreven, J. A. Montgomery, Jr., 
 J. E. Peralta, F. Ogliaro, M. Bearpark, J. J. Heyd, E. Brothers, 
 K. N. Kudin, V. N. Staroverov, T. Keith, R. Kobayashi, J. Normand, 
 K. Raghavachari, A. Rendell, J. C. Burant, S. S. Iyengar, J. Tomasi, 
 M. Cossi, N. Rega, J. M. Millam, M. Klene, J. E. Knox, J. B. Cross, 
 V. Bakken, C. Adamo, J. Jaramillo, R. Gomperts, R. E. Stratmann, 
 O. Yazyev, A. J. Austin, R. Cammi, C. Pomelli, J. W. Ochterski, 
 R. L. Martin, K. Morokuma, V. G. Zakrzewski, G. A. Voth, 
 P. Salvador, J. J. Dannenberg, S. Dapprich, A. D. Daniels, 
 O. Farkas, J. B. Foresman, J. V. Ortiz, J. Cioslowski, 
 and D. J. Fox, Gaussian, Inc., Wallingford CT, 2013.
 
 ******************************************
 Gaussian 09:  AS64L-G09RevD.01 24-Apr-2013
                 5-Dec-2018 
 ******************************************
 %Chk=CH400188
 %Mem=2GB
 %NProcShared=16
 Will use up to   16 processors via shared memory.
 -----------------------------------------------------------
 #T M05/Gen test Massage Symmetry=None SCF=(tight,maxcyc=60)
 -----------------------------------------------------------
 -------
 M05 opt
 -------
 Symbolic Z-matrix:
 Charge =  0 Multiplicity = 1
 6                     0.        0.        0. 
 1                     0.95739   0.        0.55623 
 1                    -0.70871   0.69881   0.48515 
 1                     0.17968   0.32221  -1.04397 
 1                    -0.42836  -1.02102   0.0026 
 0                    -0.63352   0.       -0.36806 
 0                     0.46897  -0.46242  -0.32103 
 0                    -0.1189   -0.21321   0.69081 
 0                     0.28345   0.67563  -0.00172 
 6                     0.        0.        3.7363 
 1                    -0.51768  -0.97853   3.75816 
 1                    -0.61678   0.73149   3.17908 
 1                     0.15327   0.35968   4.77222 
 1                     0.98119  -0.11265   3.23575 
 0                     0.34256   0.6475    3.72184 
 0                     0.40813  -0.48404   4.10502 
 0                    -0.10142  -0.23801   3.05082 
 0                    -0.64927   0.07454   4.06752 
 
                    Distance matrix (angstroms):
                    1          2          3          4          5
     1  C    0.000000
     2  H    1.107243   0.000000
     3  H    1.107243   1.808119   0.000000
     4  H    1.107242   1.808119   1.808119   0.000000
     5  H    1.107243   1.808119   1.808119   1.808119   0.000000
     6  Bq   0.732679   1.839921   1.105427   1.105427   1.105427
     7  Bq   0.732679   1.105427   1.839921   1.105427   1.105427
     8  Bq   0.732679   1.105427   1.105427   1.839921   1.105427
     9  Bq   0.732679   1.105427   1.105427   1.105427   1.839921
    10  C    3.736300   3.321065   3.400085   4.794489   3.894422
    11  H    3.917814   3.658652   3.682734   5.023814   3.756864
    12  H    3.319946   3.145228   2.695694   4.316948   3.632745
    13  H    4.788205   4.307037   4.385994   5.816371   4.999391
    14  H    3.383118   2.681994   3.328667   4.375790   3.642149
    15  Bq   3.793241   3.289130   3.403517   4.779676   4.148619
    16  Bq   4.153560   3.623524   3.968618   5.216740   4.221132
    17  Bq   3.061770   2.720428   2.798051   4.142487   3.164121
    18  Bq   4.119692   3.862142   3.636845   5.184198   4.215767
                    6          7          8          9         10
     6  Bq   0.000000
     7  Bq   1.196459   0.000000
     8  Bq   1.196459   1.196459   0.000000
     9  Bq   1.196459   1.196459   1.196459   0.000000
    10  C    4.152968   4.110438   3.055256   3.809147   0.000000
    11  H    4.242244   4.228432   3.186431   4.185058   1.107242
    12  H    3.621819   3.854222   2.707732   3.306209   1.107243
    13  H    5.212569   5.168819   4.130392   4.786149   1.107243
    14  H    3.950625   3.610456   2.774347   3.404321   1.107242
    15  Bq   4.254323   4.194364   3.184474   3.724130   0.732679
    16  Bq   4.618204   4.426524   3.465245   4.269154   0.732679
    17  Bq   3.468218   3.427110   2.360201   3.209493   0.732679
    18  Bq   4.436241   4.560504   3.430200   4.217820   0.732679
                   11         12         13         14         15
    11  H    0.000000
    12  H    1.808119   0.000000
    13  H    1.808119   1.808119   0.000000
    14  H    1.808119   1.808119   1.808119   0.000000
    15  Bq   1.839921   1.105427   1.105427   1.105427   0.000000
    16  Bq   1.105427   1.839921   1.105427   1.105427   1.196459
    17  Bq   1.105427   1.105427   1.839921   1.105427   1.196459
    18  Bq   1.105427   1.105427   1.105427   1.839921   1.196459
                   16         17         18
    16  Bq   0.000000
    17  Bq   1.196459   0.000000
    18  Bq   1.196459   1.196459   0.000000
 Symmetry turned off by external request.
 Rotational constants (GHZ):     76.6916056      4.2652426      4.2652426
 Warning:  center   6 has no basis functions!
 Warning:  center   7 has no basis functions!
 Warning:  center   8 has no basis functions!
 Warning:  center   9 has no basis functions!
 Warning:  center  15 has no basis functions!
 Warning:  center  16 has no basis functions!
 Warning:  center  17 has no basis functions!
 Warning:  center  18 has no basis functions!
   276 basis functions,   360 primitive gaussians,   310 cartesian basis functions
    10 alpha electrons       10 beta electrons
       nuclear repulsion energy        40.5169884410 Hartrees.
 IMHF & INEx in M05                  614413                  385587
 NAtoms=   18 NActive=   18 NUniq=   18 SFac= 1.00D+00 NAtFMM=   60 NAOKFM=F Big=F
 ExpMin= 2.53D-02 ExpMax= 8.24D+03 ExpMxC= 2.81D+02 IAcc=3 IRadAn=         5 AccDes= 0.00D+00
 Harris functional with IExCor= 1009 and IRadAn=       5 diagonalized for initial guess.
 HarFok:  IExCor= 1009 AccDes= 0.00D+00 IRadAn=         5 IDoV= 1 UseB2=F ITyADJ=14
 ICtDFT=  3500011 ScaDFX=  1.000000  1.000000  1.000000  1.000000
 FoFCou: FMM=F IPFlag=           0 FMFlag=      100000 FMFlg1=           0
         NFxFlg=           0 DoJE=T BraDBF=F KetDBF=T FulRan=T
         wScrn=  0.000000 ICntrl=     500 IOpCl=  0 I1Cent=   200000004 NGrid=           0
         NMat0=    1 NMatS0=      1 NMatT0=    0 NMatD0=    1 NMtDS0=    0 NMtDT0=    0
 Symmetry not used in FoFCou.
 SCF Done:  E(RM05) =  -89.8511926783     A.U. after   11 cycles
            NFock= 11  Conv=0.55D-08     -V/T= 2.0281

 **********************************************************************

            Population analysis using the SCF density.

 **********************************************************************

 Alpha  occ. eigenvalues --  -11.79381 -11.79370  -0.95647  -0.95194  -0.66407
 Alpha  occ. eigenvalues --   -0.66235  -0.65868  -0.65659  -0.65290  -0.65120
 Alpha virt. eigenvalues --   -0.09437  -0.05411  -0.03134  -0.02865  -0.00774
 Alpha virt. eigenvalues --    0.00044   0.00430   0.00489   0.00717   0.00827
 Alpha virt. eigenvalues --    0.02167   0.03254   0.04316   0.04381   0.05526
 Alpha virt. eigenvalues --    0.06390   0.07000   0.07806   0.07930   0.08753
 Alpha virt. eigenvalues --    0.08819   0.09919   0.10182   0.11436   0.11661
 Alpha virt. eigenvalues --    0.16714   0.18669   0.18866   0.19043   0.19094
 Alpha virt. eigenvalues --    0.19782   0.20054   0.20861   0.21705   0.22143
 Alpha virt. eigenvalues --    0.22390   0.23291   0.24363   0.24462   0.25578
 Alpha virt. eigenvalues --    0.25924   0.26304   0.27172   0.27479   0.27625
 Alpha virt. eigenvalues --    0.28143   0.29816   0.30586   0.30719   0.31615
 Alpha virt. eigenvalues --    0.34145   0.35438   0.35688   0.37335   0.38994
 Alpha virt. eigenvalues --    0.41593   0.42133   0.43327   0.45403   0.46897
 Alpha virt. eigenvalues --    0.48796   0.49373   0.50803   0.52543   0.55881
 Alpha virt. eigenvalues --    0.57149   0.58150   0.58466   0.59001   0.60948
 Alpha virt. eigenvalues --    0.61919   0.62734   0.63488   0.65585   0.66520
 Alpha virt. eigenvalues --    0.67003   0.68051   0.68331   0.69172   0.70663
 Alpha virt. eigenvalues --    0.71190   0.71402   0.73691   0.74135   0.75410
 Alpha virt. eigenvalues --    0.76066   0.76494   0.78647   0.79147   0.79364
 Alpha virt. eigenvalues --    0.79486   0.79664   0.81162   0.81963   0.82414
 Alpha virt. eigenvalues --    0.84522   0.86213   0.87405   0.88707   0.89127
 Alpha virt. eigenvalues --    0.90666   0.90991   0.91709   0.93006   0.94364
 Alpha virt. eigenvalues --    0.94527   0.96249   0.96922   0.97993   0.98700
 Alpha virt. eigenvalues --    0.99392   1.03676   1.04483   1.10236   1.12237
 Alpha virt. eigenvalues --    1.13646   1.21654   1.22120   1.26104   1.28246
 Alpha virt. eigenvalues --    1.28657   1.28882   1.29649   1.30362   1.31131
 Alpha virt. eigenvalues --    1.31544   1.32555   1.35427   1.37764   1.37932
 Alpha virt. eigenvalues --    1.40137   1.42184   1.44539   1.44921   1.47619
 Alpha virt. eigenvalues --    1.48626   1.49381   1.51260   1.52092   1.52975
 Alpha virt. eigenvalues --    1.54469   1.56130   1.56219   1.58525   1.60111
 Alpha virt. eigenvalues --    1.62465   1.63485   1.65223   1.73011   1.77544
 Alpha virt. eigenvalues --    1.77800   1.78878   1.81422   1.82396   1.82806
 Alpha virt. eigenvalues --    1.89433   1.93598   1.93962   1.97724   1.99060
 Alpha virt. eigenvalues --    2.16004   2.21942   2.29859   2.50603   2.54171
 Alpha virt. eigenvalues --    2.55876   2.59426   2.61649   2.62322   2.64863
 Alpha virt. eigenvalues --    3.00228   3.01018   3.03722   3.04514   3.05767
 Alpha virt. eigenvalues --    3.06151   3.06324   3.07199   3.07858   3.08156
 Alpha virt. eigenvalues --    3.08708   3.10009   3.13570   3.14143   3.21101
 Alpha virt. eigenvalues --    3.22680   3.27725   3.28800   3.29736   3.31307
 Alpha virt. eigenvalues --    3.33363   3.37083   3.48307   3.49470   3.51076
 Alpha virt. eigenvalues --    3.52908   3.53023   3.53519   3.54646   3.55386
 Alpha virt. eigenvalues --    3.55567   3.56020   3.57477   3.59144   3.59679
 Alpha virt. eigenvalues --    3.63537   3.64278   3.67049   3.69231   3.70761
 Alpha virt. eigenvalues --    3.95783   3.97756   3.98441   3.98886   4.00914
 Alpha virt. eigenvalues --    4.01587   4.08175   4.08961   4.09683   4.11648
 Alpha virt. eigenvalues --    4.11709   4.12349   4.14703   4.15781   4.16262
 Alpha virt. eigenvalues --    4.18897   4.24097   4.25217   4.25295   4.26315
 Alpha virt. eigenvalues --    4.29768   4.34266   4.38003   4.46914   4.52949
 Alpha virt. eigenvalues --    4.53220   4.54702   4.55224   4.56836   4.57586
 Alpha virt. eigenvalues --    4.90509   4.93729   4.95443   4.95462   4.96152
 Alpha virt. eigenvalues --    4.96587   4.97569   4.99898   5.07657   5.07997
 Alpha virt. eigenvalues --    5.10876   5.11155   5.23908   5.23913   5.24649
 Alpha virt. eigenvalues --    5.26306   5.26974   5.30292   5.68719   5.70089
 Alpha virt. eigenvalues --    5.73393   5.75649   5.76373   5.77261  15.17633
 Alpha virt. eigenvalues --   15.52629
          Condensed to atoms (all electrons):
 Mulliken charges:
               1
     1  C   -0.277505
     2  H    0.159661
     3  H    0.115137
     4  H   -0.103345
     5  H    0.107283
     6  Bq   0.000000
     7  Bq   0.000000
     8  Bq   0.000000
     9  Bq   0.000000
    10  C   -0.273011
    11  H    0.109824
    12  H    0.156147
    13  H   -0.112249
    14  H    0.118057
    15  Bq   0.000000
    16  Bq   0.000000
    17  Bq   0.000000
    18  Bq   0.000000
 Sum of Mulliken charges =  -0.00000
 Mulliken charges with hydrogens summed into heavy atoms:
               1
     1  C   -0.277505
     6  Bq   0.000000
     7  Bq   0.056316
     8  Bq   0.107283
     9  Bq   0.115137
    10  C   -0.273011
    15  Bq   0.118057
    16  Bq  -0.112249
    17  Bq   0.265971
    18  Bq   0.000000
 Electronic spatial extent (au):  <R**2>=            570.6767
 Charge=             -0.0000 electrons
 Dipole moment (field-independent basis, Debye):
    X=              0.0030    Y=              0.0057    Z=             -0.0008  Tot=              0.0065

 Test job not archived.
 1\1\GINC-CHIMERA-NODE61\SP\RM05\Gen\C2H8\CONNORNM\05-Dec-2018\0\\#T M0
 5/Gen test Massage Symmetry=None SCF=(tight,maxcyc=60)\\M05 opt\\0,1\C
 ,0,0.,0.,0.\H,0,0.95739189,0.,0.55622543\H,0,-0.70871265,0.69881334,0.
 48515178\H,0,0.17967881,0.32220997,-1.04397424\H,0,-0.42835804,-1.0210
 2331,0.00259703\Bq,0,-0.63352026,0.,-0.36806253\Bq,0,0.46896556,-0.462
 41503,-0.32103205\Bq,0,-0.1188961,-0.21321107,0.69081307\Bq,0,0.283450
 8,0.6756261,-0.00171849\C,0,0.,0.,3.73630032\H,0,-0.51768245,-0.978525
 96,3.75815841\H,0,-0.61678074,0.73148675,3.17907989\H,0,0.15326846,0.3
 5968462,4.7722162\H,0,0.98119474,-0.11264541,3.23574678\Bq,0,0.3425580
 7,0.64750498,3.7218365\Bq,0,0.40813286,-0.48403551,4.10502125\Bq,0,-0.
 10141999,-0.23800859,3.05081959\Bq,0,-0.64927095,0.07453912,4.06752394
 \\Version=AS64L-G09RevD.01\HF=-89.8511927\RMSD=5.475e-09\Dipole=0.0011
 835,0.002235,-0.0002983\Quadrupole=-0.0256265,-0.0205598,0.0461863,0.0
 031767,0.0044697,0.0073688\PG=Unknown\\@


 FRICTION IS A DRAG,
 AND ENTROPY AIN'T WHAT IT USED TO BE.
 Job cpu time:       0 days  0 hours 18 minutes 24.4 seconds.
 File lengths (MBytes):  RWF=     41 Int=      0 D2E=      0 Chk=      4 Scr=      1
 Normal termination of Gaussian 09 at Wed Dec  5 22:06:08 2018.
