 Entering Gaussian System, Link 0=/data/szalewicgrp/connornm/opt/Gaussian/g09-M05-par/g09/g09
 AtFile(1): aug-cc-pVTZ.gbs
 Initial command:
 /data/szalewicgrp/connornm/opt/Gaussian/g09-M05-par/g09/l1.exe "/scratch/local/Gau-31976.inp" -scrdir="/scratch/local/"
 Entering Link 1 = /data/szalewicgrp/connornm/opt/Gaussian/g09-M05-par/g09/l1.exe PID=     31977.
  
 Copyright (c) 1988,1990,1992,1993,1995,1998,2003,2009,2013,
            Gaussian, Inc.  All Rights Reserved.
  
 This is part of the Gaussian(R) 09 program.  It is based on
 the Gaussian(R) 03 system (copyright 2003, Gaussian, Inc.),
 the Gaussian(R) 98 system (copyright 1998, Gaussian, Inc.),
 the Gaussian(R) 94 system (copyright 1995, Gaussian, Inc.),
 the Gaussian 92(TM) system (copyright 1992, Gaussian, Inc.),
 the Gaussian 90(TM) system (copyright 1990, Gaussian, Inc.),
 the Gaussian 88(TM) system (copyright 1988, Gaussian, Inc.),
 the Gaussian 86(TM) system (copyright 1986, Carnegie Mellon
 University), and the Gaussian 82(TM) system (copyright 1983,
 Carnegie Mellon University). Gaussian is a federally registered
 trademark of Gaussian, Inc.
  
 This software contains proprietary and confidential information,
 including trade secrets, belonging to Gaussian, Inc.
  
 This software is provided under written license and may be
 used, copied, transmitted, or stored only in accord with that
 written license.
  
 The following legend is applicable only to US Government
 contracts under FAR:
  
                    RESTRICTED RIGHTS LEGEND
  
 Use, reproduction and disclosure by the US Government is
 subject to restrictions as set forth in subparagraphs (a)
 and (c) of the Commercial Computer Software - Restricted
 Rights clause in FAR 52.227-19.
  
 Gaussian, Inc.
 340 Quinnipiac St., Bldg. 40, Wallingford CT 06492
  
  
 ---------------------------------------------------------------
 Warning -- This program may not be used in any manner that
 competes with the business of Gaussian, Inc. or will provide
 assistance to any competitor of Gaussian, Inc.  The licensee
 of this program is prohibited from giving any competitor of
 Gaussian, Inc. access to this program.  By using this program,
 the user acknowledges that Gaussian, Inc. is engaged in the
 business of creating and licensing software in the field of
 computational chemistry and represents and warrants to the
 licensee that it is not a competitor of Gaussian, Inc. and that
 it will not use this program in any manner prohibited above.
 ---------------------------------------------------------------
  

 Cite this work as:
 Gaussian 09, Revision D.01,
 M. J. Frisch, G. W. Trucks, H. B. Schlegel, G. E. Scuseria, 
 M. A. Robb, J. R. Cheeseman, G. Scalmani, V. Barone, B. Mennucci, 
 G. A. Petersson, H. Nakatsuji, M. Caricato, X. Li, H. P. Hratchian, 
 A. F. Izmaylov, J. Bloino, G. Zheng, J. L. Sonnenberg, M. Hada, 
 M. Ehara, K. Toyota, R. Fukuda, J. Hasegawa, M. Ishida, T. Nakajima, 
 Y. Honda, O. Kitao, H. Nakai, T. Vreven, J. A. Montgomery, Jr., 
 J. E. Peralta, F. Ogliaro, M. Bearpark, J. J. Heyd, E. Brothers, 
 K. N. Kudin, V. N. Staroverov, T. Keith, R. Kobayashi, J. Normand, 
 K. Raghavachari, A. Rendell, J. C. Burant, S. S. Iyengar, J. Tomasi, 
 M. Cossi, N. Rega, J. M. Millam, M. Klene, J. E. Knox, J. B. Cross, 
 V. Bakken, C. Adamo, J. Jaramillo, R. Gomperts, R. E. Stratmann, 
 O. Yazyev, A. J. Austin, R. Cammi, C. Pomelli, J. W. Ochterski, 
 R. L. Martin, K. Morokuma, V. G. Zakrzewski, G. A. Voth, 
 P. Salvador, J. J. Dannenberg, S. Dapprich, A. D. Daniels, 
 O. Farkas, J. B. Foresman, J. V. Ortiz, J. Cioslowski, 
 and D. J. Fox, Gaussian, Inc., Wallingford CT, 2013.
 
 ******************************************
 Gaussian 09:  AS64L-G09RevD.01 24-Apr-2013
                 5-Dec-2018 
 ******************************************
 %Chk=CH400242
 %Mem=2GB
 %NProcShared=16
 Will use up to   16 processors via shared memory.
 -----------------------------------------------------------
 #T M05/Gen test Massage Symmetry=None SCF=(tight,maxcyc=60)
 -----------------------------------------------------------
 -------
 M05 opt
 -------
 Symbolic Z-matrix:
 Charge =  0 Multiplicity = 1
 6                     0.        0.        0. 
 1                     1.06571   0.        0.30043 
 1                    -0.22038   0.91802  -0.57849 
 1                    -0.20694  -0.88942  -0.62617 
 1                    -0.63838  -0.0286    0.90424 
 0                    -0.70519   0.       -0.1988 
 0                     0.14583  -0.60747   0.3828 
 0                     0.13694   0.58854   0.41435 
 0                     0.42242   0.01892  -0.59835 
 6                     0.        0.        4.59628 
 1                    -0.63894   0.16948   3.70801 
 1                     0.89     -0.59009   4.30357 
 1                     0.32324   0.97491   5.00986 
 1                    -0.5743   -0.55431   5.36368 
 0                     0.42279  -0.11215   5.18406 
 0                    -0.58893   0.39047   4.78997 
 0                    -0.21389  -0.64512   4.32261 
 0                     0.38002   0.36679   4.08848 
 
                    Distance matrix (angstroms):
                    1          2          3          4          5
     1  C    0.000000
     2  H    1.107242   0.000000
     3  H    1.107243   1.808119   0.000000
     4  H    1.107243   1.808119   1.808119   0.000000
     5  H    1.107243   1.808119   1.808119   1.808119   0.000000
     6  Bq   0.732679   1.839921   1.105427   1.105427   1.105427
     7  Bq   0.732679   1.105427   1.839921   1.105427   1.105427
     8  Bq   0.732679   1.105427   1.105427   1.839921   1.105427
     9  Bq   0.732679   1.105427   1.105427   1.105427   1.839921
    10  C    4.596281   4.426066   5.260193   5.301688   3.746937
    11  H    3.766473   3.813941   4.371456   4.482526   2.810764
    12  H    4.434078   4.050214   5.228952   5.059177   3.769178
    13  H    5.114059   4.866253   5.615019   5.960004   4.334496
    14  H    5.422745   5.351019   6.132085   6.010456   4.490782
    15  Bq   5.202482   4.927045   5.889141   5.895720   4.410211
    16  Bq   4.841809   4.800650   5.406898   5.578406   3.908579
    17  Bq   4.375716   4.269834   5.144344   4.954814   3.499367
    18  Bq   4.122454   3.867044   4.737615   4.914321   3.366435
                    6          7          8          9         10
     6  Bq   0.000000
     7  Bq   1.196459   0.000000
     8  Bq   1.196459   1.196459   0.000000
     9  Bq   1.196459   1.196459   1.196459   0.000000
    10  C    4.846657   4.259544   4.225365   5.211809   0.000000
    11  H    3.911046   3.503792   3.409666   4.437778   1.107242
    12  H    4.812920   3.990810   4.133081   4.961687   1.107243
    13  H    5.397983   4.893370   4.615485   5.689965   1.107242
    14  H    5.591563   5.032953   5.129122   6.071889   1.107243
    15  Bq   5.500919   4.834684   4.829375   5.783893   0.732679
    16  Bq   5.005377   4.578090   4.439841   5.494982   0.732679
    17  Bq   4.593550   3.956380   4.113335   5.006163   0.732679
    18  Bq   4.437679   3.838764   3.688838   4.699910   0.732679
                   11         12         13         14         15
    11  H    0.000000
    12  H    1.808119   0.000000
    13  H    1.808119   1.808119   0.000000
    14  H    1.808119   1.808119   1.808119   0.000000
    15  Bq   1.839921   1.105427   1.105427   1.105427   0.000000
    16  Bq   1.105427   1.839921   1.105427   1.105427   1.196459
    17  Bq   1.105427   1.105427   1.839921   1.105427   1.196459
    18  Bq   1.105427   1.105427   1.105427   1.839921   1.196459
                   16         17         18
    16  Bq   0.000000
    17  Bq   1.196459   0.000000
    18  Bq   1.196459   1.196459   0.000000
 Symmetry turned off by external request.
 Rotational constants (GHZ):     76.6916057      2.8726672      2.8726672
 Warning:  center   6 has no basis functions!
 Warning:  center   7 has no basis functions!
 Warning:  center   8 has no basis functions!
 Warning:  center   9 has no basis functions!
 Warning:  center  15 has no basis functions!
 Warning:  center  16 has no basis functions!
 Warning:  center  17 has no basis functions!
 Warning:  center  18 has no basis functions!
   276 basis functions,   360 primitive gaussians,   310 cartesian basis functions
    10 alpha electrons       10 beta electrons
       nuclear repulsion energy        37.9775817449 Hartrees.
 IMHF & INEx in M05                  614413                  385587
 NAtoms=   18 NActive=   18 NUniq=   18 SFac= 1.00D+00 NAtFMM=   60 NAOKFM=F Big=F
 ExpMin= 2.53D-02 ExpMax= 8.24D+03 ExpMxC= 2.81D+02 IAcc=3 IRadAn=         5 AccDes= 0.00D+00
 Harris functional with IExCor= 1009 and IRadAn=       5 diagonalized for initial guess.
 HarFok:  IExCor= 1009 AccDes= 0.00D+00 IRadAn=         5 IDoV= 1 UseB2=F ITyADJ=14
 ICtDFT=  3500011 ScaDFX=  1.000000  1.000000  1.000000  1.000000
 FoFCou: FMM=F IPFlag=           0 FMFlag=      100000 FMFlg1=           0
         NFxFlg=           0 DoJE=T BraDBF=F KetDBF=T FulRan=T
         wScrn=  0.000000 ICntrl=     500 IOpCl=  0 I1Cent=   200000004 NGrid=           0
         NMat0=    1 NMatS0=      1 NMatT0=    0 NMatD0=    1 NMtDS0=    0 NMtDT0=    0
 Symmetry not used in FoFCou.
 SCF Done:  E(RM05) =  -81.8242764981     A.U. after    8 cycles
            NFock=  8  Conv=0.15D-08     -V/T= 2.0127

 **********************************************************************

            Population analysis using the SCF density.

 **********************************************************************

 Alpha  occ. eigenvalues --  -10.74532 -10.74527  -0.82827  -0.82717  -0.49223
 Alpha  occ. eigenvalues --   -0.48809  -0.48766  -0.48739  -0.48692  -0.48309
 Alpha virt. eigenvalues --   -0.00577   0.01120   0.02378   0.02416   0.03810
 Alpha virt. eigenvalues --    0.03964   0.04337   0.06475   0.07903   0.08327
 Alpha virt. eigenvalues --    0.08834   0.09480   0.09910   0.10763   0.11400
 Alpha virt. eigenvalues --    0.12672   0.13531   0.14900   0.15116   0.15659
 Alpha virt. eigenvalues --    0.15755   0.16356   0.17334   0.18428   0.20200
 Alpha virt. eigenvalues --    0.25440   0.25678   0.26338   0.26827   0.27136
 Alpha virt. eigenvalues --    0.27627   0.28620   0.28864   0.29325   0.29688
 Alpha virt. eigenvalues --    0.30346   0.30483   0.31805   0.32048   0.32397
 Alpha virt. eigenvalues --    0.33430   0.33947   0.34533   0.34824   0.35397
 Alpha virt. eigenvalues --    0.36093   0.36420   0.37257   0.38189   0.39045
 Alpha virt. eigenvalues --    0.41066   0.41976   0.42724   0.44135   0.44721
 Alpha virt. eigenvalues --    0.47436   0.48419   0.52962   0.56625   0.56796
 Alpha virt. eigenvalues --    0.58483   0.59757   0.63874   0.64802   0.66805
 Alpha virt. eigenvalues --    0.69595   0.69803   0.71303   0.72016   0.72656
 Alpha virt. eigenvalues --    0.73761   0.75093   0.76752   0.77371   0.78564
 Alpha virt. eigenvalues --    0.78872   0.80740   0.81580   0.81688   0.84863
 Alpha virt. eigenvalues --    0.85072   0.85539   0.85724   0.86470   0.86921
 Alpha virt. eigenvalues --    0.87436   0.88998   0.91476   0.92098   0.93262
 Alpha virt. eigenvalues --    0.94043   0.94420   0.94993   0.95979   0.96623
 Alpha virt. eigenvalues --    0.96999   0.98034   0.98313   0.99488   0.99934
 Alpha virt. eigenvalues --    1.00867   1.03066   1.04691   1.07417   1.07762
 Alpha virt. eigenvalues --    1.08328   1.08738   1.09623   1.10170   1.11449
 Alpha virt. eigenvalues --    1.13779   1.14680   1.15712   1.16067   1.19192
 Alpha virt. eigenvalues --    1.20534   1.31375   1.32876   1.41809   1.42275
 Alpha virt. eigenvalues --    1.43619   1.45083   1.45181   1.45547   1.45927
 Alpha virt. eigenvalues --    1.46522   1.46892   1.47662   1.47914   1.48947
 Alpha virt. eigenvalues --    1.50470   1.53784   1.54380   1.56208   1.56905
 Alpha virt. eigenvalues --    1.61296   1.62266   1.62885   1.66504   1.67199
 Alpha virt. eigenvalues --    1.68634   1.69332   1.69414   1.74180   1.75720
 Alpha virt. eigenvalues --    1.75928   1.78419   1.79777   1.81198   1.85828
 Alpha virt. eigenvalues --    1.92705   1.94050   1.95990   1.97556   1.99056
 Alpha virt. eigenvalues --    2.02827   2.03137   2.08166   2.08576   2.15600
 Alpha virt. eigenvalues --    2.33524   2.45740   2.64418   2.72649   2.84865
 Alpha virt. eigenvalues --    2.85404   2.87686   2.88096   2.89480   2.90854
 Alpha virt. eigenvalues --    3.16895   3.18187   3.19477   3.20170   3.20977
 Alpha virt. eigenvalues --    3.21590   3.22785   3.23552   3.24113   3.25060
 Alpha virt. eigenvalues --    3.25467   3.26330   3.27226   3.27669   3.29175
 Alpha virt. eigenvalues --    3.44475   3.56133   3.56839   3.57674   3.58730
 Alpha virt. eigenvalues --    3.59386   3.64897   3.70202   3.70698   3.70955
 Alpha virt. eigenvalues --    3.71172   3.71616   3.71799   3.73288   3.74126
 Alpha virt. eigenvalues --    3.75047   3.75527   3.76206   3.78413   3.80326
 Alpha virt. eigenvalues --    3.80561   3.81896   3.83081   3.84019   3.86276
 Alpha virt. eigenvalues --    4.17245   4.17488   4.18509   4.18733   4.20292
 Alpha virt. eigenvalues --    4.21057   4.31378   4.33542   4.34215   4.34365
 Alpha virt. eigenvalues --    4.35213   4.36782   4.37508   4.38520   4.40982
 Alpha virt. eigenvalues --    4.42335   4.49773   4.49944   4.50117   4.50217
 Alpha virt. eigenvalues --    4.51222   4.52982   4.73484   4.77509   4.78159
 Alpha virt. eigenvalues --    4.78331   4.78737   4.78850   4.80914   4.81869
 Alpha virt. eigenvalues --    5.14041   5.14133   5.14493   5.14789   5.15381
 Alpha virt. eigenvalues --    5.18426   5.22176   5.22774   5.32017   5.32370
 Alpha virt. eigenvalues --    5.32508   5.32927   5.57312   5.57422   5.57670
 Alpha virt. eigenvalues --    5.58333   5.58980   5.59482   6.02217   6.02648
 Alpha virt. eigenvalues --    6.03399   6.05108   6.06054   6.09886  16.53462
 Alpha virt. eigenvalues --   16.79536
          Condensed to atoms (all electrons):
 Mulliken charges:
               1
     1  C   -1.856556
     2  H    0.427926
     3  H    0.427689
     4  H    0.423058
     5  H    0.577754
     6  Bq   0.000000
     7  Bq   0.000000
     8  Bq   0.000000
     9  Bq   0.000000
    10  C   -1.851626
    11  H    0.566351
    12  H    0.428539
    13  H    0.430572
    14  H    0.426295
    15  Bq   0.000000
    16  Bq   0.000000
    17  Bq   0.000000
    18  Bq   0.000000
 Sum of Mulliken charges =  -0.00000
 Mulliken charges with hydrogens summed into heavy atoms:
               1
     1  C   -1.856556
     6  Bq   0.423058
     7  Bq   0.577754
     8  Bq   0.427926
     9  Bq   0.427689
    10  C   -1.851626
    15  Bq   0.428539
    16  Bq   0.426295
    17  Bq   0.566351
    18  Bq   0.430572
 Electronic spatial extent (au):  <R**2>=            827.4990
 Charge=              0.0000 electrons
 Dipole moment (field-independent basis, Debye):
    X=              0.0103    Y=             -0.0008    Z=              0.0010  Tot=              0.0104

 Test job not archived.
 1\1\GINC-CHIMERA-NODE10\SP\RM05\Gen\C2H8\CONNORNM\05-Dec-2018\0\\#T M0
 5/Gen test Massage Symmetry=None SCF=(tight,maxcyc=60)\\M05 opt\\0,1\C
 ,0,0.,0.,0.\H,0,1.06570536,0.,0.30042975\H,0,-0.22038448,0.9180198,-0.
 57849485\H,0,-0.20694419,-0.88942099,-0.62617119\H,0,-0.63837669,-0.02
 859881,0.90423629\Bq,0,-0.70519287,0.,-0.19879877\Bq,0,0.14583164,-0.6
 0746717,0.38279853\Bq,0,0.13693801,0.58854292,0.41434666\Bq,0,0.422423
 22,0.01892425,-0.59834641\C,0,0.,0.,4.59628071\H,0,-0.63893635,0.16948
 406,3.70801192\H,0,0.89000165,-0.59008916,4.303573\H,0,0.32323704,0.97
 491472,5.00985665\H,0,-0.57430233,-0.55430962,5.36368128\Bq,0,0.422793
 56,-0.11215009,5.1840612\Bq,0,-0.58892714,0.39047065,4.7899697\Bq,0,-0
 .21389069,-0.64511537,4.32261145\Bq,0,0.38002428,0.36679481,4.0884805\
 \Version=AS64L-G09RevD.01\HF=-81.8242765\RMSD=1.521e-09\Dipole=0.00404
 83,-0.0003301,0.0003866\Quadrupole=-0.0018233,0.0014619,0.0003614,0.00
 06352,0.0178449,0.0002746\PG=Unknown\\@


 MORNING PEOPLE ARE USUALLY ADMIRED AS EARLY BIRDS.
 RECALL BEN FRANKLIN'S APHORISM THAT THE EARLY BIRD GETS THE WORM.
 I IDENTIFY WITH THE WORM. --  CRAIG JAGGER, MINNEAPOLIS, KS.
 Job cpu time:       0 days  0 hours 34 minutes 45.0 seconds.
 File lengths (MBytes):  RWF=     41 Int=      0 D2E=      0 Chk=      4 Scr=      1
 Normal termination of Gaussian 09 at Wed Dec  5 21:29:01 2018.
