 Entering Gaussian System, Link 0=/data/szalewicgrp/connornm/opt/Gaussian/g09-M05-par/g09/g09
 AtFile(1): aug-cc-pVTZ.gbs
 Initial command:
 /data/szalewicgrp/connornm/opt/Gaussian/g09-M05-par/g09/l1.exe "/scratch/local/Gau-28264.inp" -scrdir="/scratch/local/"
 Entering Link 1 = /data/szalewicgrp/connornm/opt/Gaussian/g09-M05-par/g09/l1.exe PID=     28265.
  
 Copyright (c) 1988,1990,1992,1993,1995,1998,2003,2009,2013,
            Gaussian, Inc.  All Rights Reserved.
  
 This is part of the Gaussian(R) 09 program.  It is based on
 the Gaussian(R) 03 system (copyright 2003, Gaussian, Inc.),
 the Gaussian(R) 98 system (copyright 1998, Gaussian, Inc.),
 the Gaussian(R) 94 system (copyright 1995, Gaussian, Inc.),
 the Gaussian 92(TM) system (copyright 1992, Gaussian, Inc.),
 the Gaussian 90(TM) system (copyright 1990, Gaussian, Inc.),
 the Gaussian 88(TM) system (copyright 1988, Gaussian, Inc.),
 the Gaussian 86(TM) system (copyright 1986, Carnegie Mellon
 University), and the Gaussian 82(TM) system (copyright 1983,
 Carnegie Mellon University). Gaussian is a federally registered
 trademark of Gaussian, Inc.
  
 This software contains proprietary and confidential information,
 including trade secrets, belonging to Gaussian, Inc.
  
 This software is provided under written license and may be
 used, copied, transmitted, or stored only in accord with that
 written license.
  
 The following legend is applicable only to US Government
 contracts under FAR:
  
                    RESTRICTED RIGHTS LEGEND
  
 Use, reproduction and disclosure by the US Government is
 subject to restrictions as set forth in subparagraphs (a)
 and (c) of the Commercial Computer Software - Restricted
 Rights clause in FAR 52.227-19.
  
 Gaussian, Inc.
 340 Quinnipiac St., Bldg. 40, Wallingford CT 06492
  
  
 ---------------------------------------------------------------
 Warning -- This program may not be used in any manner that
 competes with the business of Gaussian, Inc. or will provide
 assistance to any competitor of Gaussian, Inc.  The licensee
 of this program is prohibited from giving any competitor of
 Gaussian, Inc. access to this program.  By using this program,
 the user acknowledges that Gaussian, Inc. is engaged in the
 business of creating and licensing software in the field of
 computational chemistry and represents and warrants to the
 licensee that it is not a competitor of Gaussian, Inc. and that
 it will not use this program in any manner prohibited above.
 ---------------------------------------------------------------
  

 Cite this work as:
 Gaussian 09, Revision D.01,
 M. J. Frisch, G. W. Trucks, H. B. Schlegel, G. E. Scuseria, 
 M. A. Robb, J. R. Cheeseman, G. Scalmani, V. Barone, B. Mennucci, 
 G. A. Petersson, H. Nakatsuji, M. Caricato, X. Li, H. P. Hratchian, 
 A. F. Izmaylov, J. Bloino, G. Zheng, J. L. Sonnenberg, M. Hada, 
 M. Ehara, K. Toyota, R. Fukuda, J. Hasegawa, M. Ishida, T. Nakajima, 
 Y. Honda, O. Kitao, H. Nakai, T. Vreven, J. A. Montgomery, Jr., 
 J. E. Peralta, F. Ogliaro, M. Bearpark, J. J. Heyd, E. Brothers, 
 K. N. Kudin, V. N. Staroverov, T. Keith, R. Kobayashi, J. Normand, 
 K. Raghavachari, A. Rendell, J. C. Burant, S. S. Iyengar, J. Tomasi, 
 M. Cossi, N. Rega, J. M. Millam, M. Klene, J. E. Knox, J. B. Cross, 
 V. Bakken, C. Adamo, J. Jaramillo, R. Gomperts, R. E. Stratmann, 
 O. Yazyev, A. J. Austin, R. Cammi, C. Pomelli, J. W. Ochterski, 
 R. L. Martin, K. Morokuma, V. G. Zakrzewski, G. A. Voth, 
 P. Salvador, J. J. Dannenberg, S. Dapprich, A. D. Daniels, 
 O. Farkas, J. B. Foresman, J. V. Ortiz, J. Cioslowski, 
 and D. J. Fox, Gaussian, Inc., Wallingford CT, 2013.
 
 ******************************************
 Gaussian 09:  AS64L-G09RevD.01 24-Apr-2013
                 8-Dec-2018 
 ******************************************
 %Chk=CH400068
 %Mem=2GB
 %NProcShared=16
 Will use up to   16 processors via shared memory.
 ---------------------------------------------
 #T M05/Gen test Massage SCF=(tight,maxcyc=40)
 ---------------------------------------------
 -------
 M05 opt
 -------
 Symbolic Z-matrix:
 Charge =  0 Multiplicity = 1
 6                     0.        0.        0. 
 1                     1.09614   0.        0.15641 
 1                    -0.26874  -0.7885   -0.72941 
 1                    -0.51016  -0.19823   0.96251 
 1                    -0.31724   0.98672  -0.38951 
 0                    -0.72533   0.       -0.1035 
 0                     0.17783   0.52176   0.48266 
 0                     0.33758   0.13117  -0.63691 
 0                     0.20992  -0.65293   0.25775 
 6                     0.        0.        4.58026 
 1                    -0.09787  -0.19394   3.49454 
 1                     0.40201   1.01951   4.7383 
 1                    -0.99385  -0.08349   5.06116 
 1                     0.68972  -0.74207   5.02703 
 0                     0.06476   0.12833   5.2987 
 0                    -0.26602  -0.67462   4.47568 
 0                     0.65765   0.05525   4.26204 
 0                    -0.45639   0.49104   4.28462 
 
                    Distance matrix (angstroms):
                    1          2          3          4          5
     1  C    0.000000
     2  H    1.107243   0.000000
     3  H    1.107242   1.808119   0.000000
     4  H    1.107243   1.808119   1.808119   0.000000
     5  H    1.107242   1.808119   1.808119   1.808119   0.000000
     6  Bq   0.732679   1.839921   1.105427   1.105427   1.105427
     7  Bq   0.732679   1.105427   1.839921   1.105427   1.105427
     8  Bq   0.732679   1.105427   1.105427   1.839921   1.105427
     9  Bq   0.732679   1.105427   1.105427   1.105427   1.839921
    10  C    4.580258   4.557623   5.374617   3.658916   5.076703
    11  H    3.501281   3.550541   4.269004   2.565377   4.065457
    12  H    4.863385   4.744988   5.797814   4.070817   5.178118
    13  H    5.158495   5.332129   5.878225   4.128688   5.595807
    14  H    5.128104   4.943561   5.835873   4.272685   5.774226
    15  Bq   5.300647   5.246264   6.106542   4.386309   5.765285
    16  Bq   4.534047   4.578934   5.206333   3.553719   5.141284
    17  Bq   4.312832   4.129344   5.146322   3.509262   4.843035
    18  Bq   4.336749   4.437744   5.178119   3.393287   4.702404
                    6          7          8          9         10
     6  Bq   0.000000
     7  Bq   1.196459   0.000000
     8  Bq   1.196459   1.196459   0.000000
     9  Bq   1.196459   1.196459   1.196459   0.000000
    10  C    4.739589   4.134510   5.229721   4.376584   0.000000
    11  H    3.657483   3.107995   4.167030   3.283627   1.107242
    12  H    5.074777   4.290513   5.448501   4.786367   1.107243
    13  H    5.172312   4.764646   5.855492   4.984588   1.107242
    14  H    5.373585   4.744538   5.741670   4.794188   1.107243
    15  Bq   5.461178   4.833403   5.941871   5.103196   0.732679
    16  Bq   4.651340   4.191960   5.210774   4.244753   0.732679
    17  Bq   4.579696   3.838171   4.909976   4.091004   0.732679
    18  Bq   4.423692   3.854618   4.998133   4.238909   0.732679
                   11         12         13         14         15
    11  H    0.000000
    12  H    1.808119   0.000000
    13  H    1.808119   1.808119   0.000000
    14  H    1.808119   1.808119   1.808119   0.000000
    15  Bq   1.839921   1.105427   1.105427   1.105427   0.000000
    16  Bq   1.105427   1.839921   1.105427   1.105427   1.196459
    17  Bq   1.105427   1.105427   1.839921   1.105427   1.196459
    18  Bq   1.105427   1.105427   1.105427   1.839921   1.196459
                   16         17         18
    16  Bq   0.000000
    17  Bq   1.196459   0.000000
    18  Bq   1.196459   1.196459   0.000000
 Symmetry turned off by external request.
 Symmetry turned off:
 Cannot cope with ghost atoms or with translation vectors.
 Framework group  C1[X(C2H8)]
 NUMDOF-- NAT=    10 NAtoms=    18
 Deg. of freedom     0
 Rotational constants (GHZ):     76.6916055      2.8920411      2.8920411
 Warning:  center   6 has no basis functions!
 Warning:  center   7 has no basis functions!
 Warning:  center   8 has no basis functions!
 Warning:  center   9 has no basis functions!
 Warning:  center  15 has no basis functions!
 Warning:  center  16 has no basis functions!
 Warning:  center  17 has no basis functions!
 Warning:  center  18 has no basis functions!
   276 basis functions,   360 primitive gaussians,   310 cartesian basis functions
    10 alpha electrons       10 beta electrons
       nuclear repulsion energy        38.0561245055 Hartrees.
 IMHF & INEx in M05                  614413                  385587
 NAtoms=   18 NActive=   18 NUniq=   18 SFac= 1.00D+00 NAtFMM=   60 NAOKFM=F Big=F
 ExpMin= 2.53D-02 ExpMax= 8.24D+03 ExpMxC= 2.81D+02 IAcc=3 IRadAn=         5 AccDes= 0.00D+00
 Harris functional with IExCor= 1009 and IRadAn=       5 diagonalized for initial guess.
 HarFok:  IExCor= 1009 AccDes= 0.00D+00 IRadAn=         5 IDoV= 1 UseB2=F ITyADJ=14
 ICtDFT=  3500011 ScaDFX=  1.000000  1.000000  1.000000  1.000000
 FoFCou: FMM=F IPFlag=           0 FMFlag=      100000 FMFlg1=           0
         NFxFlg=           0 DoJE=T BraDBF=F KetDBF=T FulRan=T
         wScrn=  0.000000 ICntrl=     500 IOpCl=  0 I1Cent=   200000004 NGrid=           0
         NMat0=    1 NMatS0=      1 NMatT0=    0 NMatD0=    1 NMtDS0=    0 NMtDT0=    0
 Symmetry not used in FoFCou.
 SCF Done:  E(RM05) =  -91.8327949207     A.U. after   12 cycles
            NFock= 12  Conv=0.32D-08     -V/T= 2.0336

 **********************************************************************

            Population analysis using the SCF density.

 **********************************************************************

 Alpha  occ. eigenvalues --  -12.06187 -12.06167  -0.99667  -0.99513  -0.71941
 Alpha  occ. eigenvalues --   -0.71352  -0.71347  -0.71327  -0.71316  -0.70740
 Alpha virt. eigenvalues --   -0.11324  -0.07683  -0.04118  -0.02935  -0.02802
 Alpha virt. eigenvalues --   -0.01875  -0.01836  -0.01763  -0.01510  -0.00777
 Alpha virt. eigenvalues --   -0.00075   0.01061   0.01405   0.03257   0.05007
 Alpha virt. eigenvalues --    0.05248   0.05903   0.06431   0.06737   0.06944
 Alpha virt. eigenvalues --    0.07402   0.07711   0.08126   0.09215   0.10340
 Alpha virt. eigenvalues --    0.13307   0.16132   0.17395   0.17928   0.18254
 Alpha virt. eigenvalues --    0.19317   0.20035   0.20383   0.20702   0.21043
 Alpha virt. eigenvalues --    0.21489   0.22133   0.22463   0.22840   0.23395
 Alpha virt. eigenvalues --    0.24297   0.24937   0.25108   0.25376   0.25410
 Alpha virt. eigenvalues --    0.26142   0.26365   0.27166   0.27712   0.28619
 Alpha virt. eigenvalues --    0.30563   0.31572   0.33370   0.35709   0.36836
 Alpha virt. eigenvalues --    0.37740   0.38101   0.39932   0.41382   0.42350
 Alpha virt. eigenvalues --    0.43913   0.45540   0.46253   0.49974   0.51654
 Alpha virt. eigenvalues --    0.55723   0.56552   0.56620   0.57378   0.57544
 Alpha virt. eigenvalues --    0.58270   0.60098   0.61689   0.62129   0.63311
 Alpha virt. eigenvalues --    0.64107   0.65215   0.66373   0.67240   0.69417
 Alpha virt. eigenvalues --    0.69535   0.70124   0.70891   0.71195   0.71262
 Alpha virt. eigenvalues --    0.71863   0.73751   0.74375   0.74856   0.75930
 Alpha virt. eigenvalues --    0.76628   0.76762   0.77408   0.79192   0.79608
 Alpha virt. eigenvalues --    0.80183   0.80831   0.81462   0.82592   0.85735
 Alpha virt. eigenvalues --    0.86639   0.87073   0.87324   0.88663   0.90299
 Alpha virt. eigenvalues --    0.91374   0.92580   0.93035   0.93239   0.94558
 Alpha virt. eigenvalues --    0.96012   0.96748   0.98697   0.98878   1.00456
 Alpha virt. eigenvalues --    1.02852   1.09670   1.16445   1.22029   1.24037
 Alpha virt. eigenvalues --    1.24717   1.24757   1.25319   1.25544   1.26023
 Alpha virt. eigenvalues --    1.26785   1.27423   1.27565   1.28150   1.30372
 Alpha virt. eigenvalues --    1.31981   1.33607   1.34359   1.35964   1.37463
 Alpha virt. eigenvalues --    1.38650   1.42096   1.42674   1.46446   1.48101
 Alpha virt. eigenvalues --    1.48891   1.49722   1.52870   1.54367   1.54652
 Alpha virt. eigenvalues --    1.57678   1.58987   1.59029   1.59497   1.63388
 Alpha virt. eigenvalues --    1.73095   1.73422   1.76352   1.79404   1.80332
 Alpha virt. eigenvalues --    1.82820   1.88333   1.91165   1.94058   1.95816
 Alpha virt. eigenvalues --    2.12334   2.27601   2.31195   2.39148   2.46695
 Alpha virt. eigenvalues --    2.47518   2.48248   2.48460   2.49650   2.51297
 Alpha virt. eigenvalues --    2.95835   2.96734   2.97155   2.97373   2.98184
 Alpha virt. eigenvalues --    2.98503   2.98810   2.99911   3.00359   3.01167
 Alpha virt. eigenvalues --    3.03428   3.03929   3.05028   3.08932   3.10050
 Alpha virt. eigenvalues --    3.17631   3.21485   3.21881   3.22127   3.23328
 Alpha virt. eigenvalues --    3.26978   3.34972   3.43598   3.43794   3.44234
 Alpha virt. eigenvalues --    3.45814   3.45926   3.46046   3.46948   3.47156
 Alpha virt. eigenvalues --    3.48277   3.48775   3.49676   3.50423   3.52235
 Alpha virt. eigenvalues --    3.52746   3.54854   3.55750   3.56752   3.59047
 Alpha virt. eigenvalues --    3.89472   3.89862   3.90186   3.90410   3.92179
 Alpha virt. eigenvalues --    3.93612   4.01851   4.02083   4.02572   4.03717
 Alpha virt. eigenvalues --    4.04389   4.04549   4.05482   4.06829   4.08694
 Alpha virt. eigenvalues --    4.09974   4.16909   4.17230   4.17705   4.18368
 Alpha virt. eigenvalues --    4.19582   4.20365   4.30822   4.39617   4.46070
 Alpha virt. eigenvalues --    4.46216   4.46882   4.47243   4.49533   4.54929
 Alpha virt. eigenvalues --    4.81641   4.82376   4.88298   4.88522   4.89180
 Alpha virt. eigenvalues --    4.89377   4.89652   4.91311   5.02114   5.02428
 Alpha virt. eigenvalues --    5.02515   5.02756   5.14173   5.14936   5.15209
 Alpha virt. eigenvalues --    5.15605   5.17895   5.19739   5.60060   5.60653
 Alpha virt. eigenvalues --    5.61289   5.62638   5.63625   5.69643  14.96086
 Alpha virt. eigenvalues --   15.18864
          Condensed to atoms (all electrons):
 Mulliken charges:
               1
     1  C    0.323374
     2  H   -0.169104
     3  H   -0.283565
     4  H    0.339267
     5  H   -0.210662
     6  Bq   0.000000
     7  Bq   0.000000
     8  Bq   0.000000
     9  Bq   0.000000
    10  C    0.055720
    11  H    0.998186
    12  H   -0.326724
    13  H   -0.339798
    14  H   -0.386693
    15  Bq   0.000000
    16  Bq   0.000000
    17  Bq   0.000000
    18  Bq   0.000000
 Sum of Mulliken charges =  -0.00000
 Mulliken charges with hydrogens summed into heavy atoms:
               1
     1  C    0.323374
     6  Bq  -0.210662
     7  Bq   0.339267
     8  Bq  -0.169104
     9  Bq  -0.283565
    10  C    0.055720
    15  Bq   0.000000
    16  Bq  -0.726491
    17  Bq   0.671461
    18  Bq   0.000000
 Electronic spatial extent (au):  <R**2>=            820.2281
 Charge=             -0.0000 electrons
 Dipole moment (field-independent basis, Debye):
    X=              0.0029    Y=              0.0022    Z=              0.0047  Tot=              0.0060

 Test job not archived.
 1\1\GINC-CHIMERA-NODE50\SP\RM05\Gen\C2H8\CONNORNM\08-Dec-2018\0\\#T M0
 5/Gen test Massage SCF=(tight,maxcyc=40)\\M05 opt\\0,1\C,0,0.,0.,0.\H,
 0,1.09613907,0.,0.15641323\H,0,-0.2687368,-0.78849876,-0.72940811\H,0,
 -0.51016449,-0.1982253,0.96250968\H,0,-0.31723778,0.98672406,-0.389514
 79\Bq,0,-0.7253313,0.,-0.10350093\Bq,0,0.17782708,0.52176119,0.4826600
 5\Bq,0,0.33758333,0.13116859,-0.63690677\Bq,0,0.20992089,-0.65292979,0
 .25774765\C,0,0.,0.,4.58025839\H,0,-0.097874,-0.19394049,3.49453572\H,
 0,0.40201314,1.01950652,4.73830221\H,0,-0.9938545,-0.08349451,5.061161
 55\H,0,0.68971537,-0.74207153,5.02703408\Bq,0,0.06476466,0.12833327,5.
 29869701\Bq,0,-0.26601799,-0.67462242,4.47567848\Bq,0,0.6576481,0.0552
 4954,4.26203771\Bq,0,-0.45639478,0.49103961,4.28462036\\Version=AS64L-
 G09RevD.01\HF=-91.8327949\RMSD=3.232e-09\Dipole=0.001151,0.0008585,0.0
 0185\Quadrupole=-0.0366025,-0.036892,0.0734945,-0.0004734,0.0059207,0.
 0034224\PG=C01 [X(C2H8)]\\@


 SILVERMAN'S PARADOX - IF MURPHY'S LAW CAN GO WRONG, IT WILL.
 Job cpu time:       0 days  0 hours 17 minutes 11.1 seconds.
 File lengths (MBytes):  RWF=     41 Int=      0 D2E=      0 Chk=      4 Scr=      1
 Normal termination of Gaussian 09 at Sat Dec  8 15:11:39 2018.
