 Entering Gaussian System, Link 0=/data/szalewicgrp/connornm/opt/Gaussian/g09-M05-par/g09/g09
 AtFile(1): aug-cc-pVTZ.gbs
 Initial command:
 /data/szalewicgrp/connornm/opt/Gaussian/g09-M05-par/g09/l1.exe "/scratch/local/Gau-25829.inp" -scrdir="/scratch/local/"
 Entering Link 1 = /data/szalewicgrp/connornm/opt/Gaussian/g09-M05-par/g09/l1.exe PID=     25830.
  
 Copyright (c) 1988,1990,1992,1993,1995,1998,2003,2009,2013,
            Gaussian, Inc.  All Rights Reserved.
  
 This is part of the Gaussian(R) 09 program.  It is based on
 the Gaussian(R) 03 system (copyright 2003, Gaussian, Inc.),
 the Gaussian(R) 98 system (copyright 1998, Gaussian, Inc.),
 the Gaussian(R) 94 system (copyright 1995, Gaussian, Inc.),
 the Gaussian 92(TM) system (copyright 1992, Gaussian, Inc.),
 the Gaussian 90(TM) system (copyright 1990, Gaussian, Inc.),
 the Gaussian 88(TM) system (copyright 1988, Gaussian, Inc.),
 the Gaussian 86(TM) system (copyright 1986, Carnegie Mellon
 University), and the Gaussian 82(TM) system (copyright 1983,
 Carnegie Mellon University). Gaussian is a federally registered
 trademark of Gaussian, Inc.
  
 This software contains proprietary and confidential information,
 including trade secrets, belonging to Gaussian, Inc.
  
 This software is provided under written license and may be
 used, copied, transmitted, or stored only in accord with that
 written license.
  
 The following legend is applicable only to US Government
 contracts under FAR:
  
                    RESTRICTED RIGHTS LEGEND
  
 Use, reproduction and disclosure by the US Government is
 subject to restrictions as set forth in subparagraphs (a)
 and (c) of the Commercial Computer Software - Restricted
 Rights clause in FAR 52.227-19.
  
 Gaussian, Inc.
 340 Quinnipiac St., Bldg. 40, Wallingford CT 06492
  
  
 ---------------------------------------------------------------
 Warning -- This program may not be used in any manner that
 competes with the business of Gaussian, Inc. or will provide
 assistance to any competitor of Gaussian, Inc.  The licensee
 of this program is prohibited from giving any competitor of
 Gaussian, Inc. access to this program.  By using this program,
 the user acknowledges that Gaussian, Inc. is engaged in the
 business of creating and licensing software in the field of
 computational chemistry and represents and warrants to the
 licensee that it is not a competitor of Gaussian, Inc. and that
 it will not use this program in any manner prohibited above.
 ---------------------------------------------------------------
  

 Cite this work as:
 Gaussian 09, Revision D.01,
 M. J. Frisch, G. W. Trucks, H. B. Schlegel, G. E. Scuseria, 
 M. A. Robb, J. R. Cheeseman, G. Scalmani, V. Barone, B. Mennucci, 
 G. A. Petersson, H. Nakatsuji, M. Caricato, X. Li, H. P. Hratchian, 
 A. F. Izmaylov, J. Bloino, G. Zheng, J. L. Sonnenberg, M. Hada, 
 M. Ehara, K. Toyota, R. Fukuda, J. Hasegawa, M. Ishida, T. Nakajima, 
 Y. Honda, O. Kitao, H. Nakai, T. Vreven, J. A. Montgomery, Jr., 
 J. E. Peralta, F. Ogliaro, M. Bearpark, J. J. Heyd, E. Brothers, 
 K. N. Kudin, V. N. Staroverov, T. Keith, R. Kobayashi, J. Normand, 
 K. Raghavachari, A. Rendell, J. C. Burant, S. S. Iyengar, J. Tomasi, 
 M. Cossi, N. Rega, J. M. Millam, M. Klene, J. E. Knox, J. B. Cross, 
 V. Bakken, C. Adamo, J. Jaramillo, R. Gomperts, R. E. Stratmann, 
 O. Yazyev, A. J. Austin, R. Cammi, C. Pomelli, J. W. Ochterski, 
 R. L. Martin, K. Morokuma, V. G. Zakrzewski, G. A. Voth, 
 P. Salvador, J. J. Dannenberg, S. Dapprich, A. D. Daniels, 
 O. Farkas, J. B. Foresman, J. V. Ortiz, J. Cioslowski, 
 and D. J. Fox, Gaussian, Inc., Wallingford CT, 2013.
 
 ******************************************
 Gaussian 09:  AS64L-G09RevD.01 24-Apr-2013
                 5-Dec-2018 
 ******************************************
 %Chk=CH400064
 %Mem=2GB
 %NProcShared=16
 Will use up to   16 processors via shared memory.
 -----------------------------------------------------------
 #T M05/Gen test Massage Symmetry=None SCF=(tight,maxcyc=60)
 -----------------------------------------------------------
 -------
 M05 opt
 -------
 Symbolic Z-matrix:
 Charge =  0 Multiplicity = 1
 6                     0.        0.        0. 
 1                     0.57396   0.       -0.94687 
 1                     0.33143  -0.84622   0.6325 
 1                     0.17401   0.9525    0.53707 
 1                    -1.0794   -0.10628  -0.2227 
 0                    -0.3798    0.        0.62656 
 0                    -0.21931   0.55996  -0.41853 
 0                    -0.11514  -0.63029  -0.35539 
 0                     0.71425   0.07033   0.14736 
 6                     0.        0.        4.73782 
 1                     1.01649  -0.43193   4.81639 
 1                     0.02627   0.88768   4.07652 
 1                    -0.69024  -0.75525   4.31457 
 1                    -0.35252   0.2995    5.74381 
 0                    -0.67263   0.28581   4.68584 
 0                    -0.01739  -0.58739   5.17542 
 0                     0.45674   0.49976   5.0179 
 0                     0.23327  -0.19819   4.07215 
 
                    Distance matrix (angstroms):
                    1          2          3          4          5
     1  C    0.000000
     2  H    1.107243   0.000000
     3  H    1.107243   1.808119   0.000000
     4  H    1.107242   1.808119   1.808119   0.000000
     5  H    1.107243   1.808119   1.808119   1.808119   0.000000
     6  Bq   0.732679   1.839921   1.105427   1.105427   1.105427
     7  Bq   0.732679   1.105427   1.839921   1.105427   1.105427
     8  Bq   0.732679   1.105427   1.105427   1.839921   1.105427
     9  Bq   0.732679   1.105427   1.105427   1.105427   1.839921
    10  C    4.737824   5.713592   4.204717   4.310902   5.077714
    11  H    4.941398   5.796336   4.259801   4.575916   5.467284
    12  H    4.172133   5.130533   3.867924   3.543127   4.549042
    13  H    4.434227   5.463639   3.822273   4.234723   4.599938
    14  H    5.762409   6.761158   5.282615   5.273880   6.024307
    15  Bq   4.742486   5.776072   4.326568   4.286434   4.940943
    16  Bq   5.208672   6.178760   4.563638   4.891029   5.522589
    17  Bq   5.063364   5.986810   4.589020   4.512507   5.494621
    18  Bq   4.083634   5.034465   3.501539   3.718113   4.491908
                    6          7          8          9         10
     6  Bq   0.000000
     7  Bq   1.196459   0.000000
     8  Bq   1.196459   1.196459   0.000000
     9  Bq   1.196459   1.196459   1.196459   0.000000
    10  C    4.128774   5.191306   5.133353   4.646227   0.000000
    11  H    4.437441   5.469501   5.297849   4.705679   1.107243
    12  H    3.585406   4.513671   4.686794   4.071813   1.107243
    13  H    3.777333   4.934959   4.706896   4.474351   1.107243
    14  H    5.126086   6.169284   6.174228   5.701821   1.107242
    15  Bq   4.079852   5.131785   5.154023   4.750536   0.732679
    16  Bq   4.600925   5.713969   5.531834   5.123398   0.732679
    17  Bq   4.498159   5.478634   5.520528   4.896203   0.732679
    18  Bq   3.505313   4.576658   4.462192   3.963252   0.732679
                   11         12         13         14         15
    11  H    0.000000
    12  H    1.808119   0.000000
    13  H    1.808119   1.808119   0.000000
    14  H    1.808119   1.808119   1.808119   0.000000
    15  Bq   1.839921   1.105427   1.105427   1.105427   0.000000
    16  Bq   1.105427   1.839921   1.105427   1.105427   1.196459
    17  Bq   1.105427   1.105427   1.839921   1.105427   1.196459
    18  Bq   1.105427   1.105427   1.105427   1.839921   1.196459
                   16         17         18
    16  Bq   0.000000
    17  Bq   1.196459   0.000000
    18  Bq   1.196459   1.196459   0.000000
 Symmetry turned off by external request.
 Rotational constants (GHZ):     76.6916052      2.7095623      2.7095623
 Warning:  center   6 has no basis functions!
 Warning:  center   7 has no basis functions!
 Warning:  center   8 has no basis functions!
 Warning:  center   9 has no basis functions!
 Warning:  center  15 has no basis functions!
 Warning:  center  16 has no basis functions!
 Warning:  center  17 has no basis functions!
 Warning:  center  18 has no basis functions!
   276 basis functions,   360 primitive gaussians,   310 cartesian basis functions
    10 alpha electrons       10 beta electrons
       nuclear repulsion energy        37.5919863384 Hartrees.
 IMHF & INEx in M05                  614413                  385587
 NAtoms=   18 NActive=   18 NUniq=   18 SFac= 1.00D+00 NAtFMM=   60 NAOKFM=F Big=F
 ExpMin= 2.53D-02 ExpMax= 8.24D+03 ExpMxC= 2.81D+02 IAcc=3 IRadAn=         5 AccDes= 0.00D+00
 Harris functional with IExCor= 1009 and IRadAn=       5 diagonalized for initial guess.
 HarFok:  IExCor= 1009 AccDes= 0.00D+00 IRadAn=         5 IDoV= 1 UseB2=F ITyADJ=14
 ICtDFT=  3500011 ScaDFX=  1.000000  1.000000  1.000000  1.000000
 FoFCou: FMM=F IPFlag=           0 FMFlag=      100000 FMFlg1=           0
         NFxFlg=           0 DoJE=T BraDBF=F KetDBF=T FulRan=T
         wScrn=  0.000000 ICntrl=     500 IOpCl=  0 I1Cent=   200000004 NGrid=           0
         NMat0=    1 NMatS0=      1 NMatT0=    0 NMatD0=    1 NMtDS0=    0 NMtDT0=    0
 Symmetry not used in FoFCou.
 SCF Done:  E(RM05) =  -81.8243993208     A.U. after    8 cycles
            NFock=  8  Conv=0.18D-08     -V/T= 2.0128

 **********************************************************************

            Population analysis using the SCF density.

 **********************************************************************

 Alpha  occ. eigenvalues --  -10.74511 -10.74508  -0.82779  -0.82720  -0.48906
 Alpha  occ. eigenvalues --   -0.48800  -0.48753  -0.48717  -0.48667  -0.48557
 Alpha virt. eigenvalues --   -0.00620   0.01093   0.02356   0.02402   0.03424
 Alpha virt. eigenvalues --    0.04138   0.04512   0.05811   0.08119   0.08528
 Alpha virt. eigenvalues --    0.08652   0.09675   0.09923   0.10541   0.11174
 Alpha virt. eigenvalues --    0.11674   0.13343   0.14851   0.14995   0.15785
 Alpha virt. eigenvalues --    0.16256   0.16628   0.17033   0.18334   0.19495
 Alpha virt. eigenvalues --    0.24331   0.25280   0.26406   0.26541   0.27280
 Alpha virt. eigenvalues --    0.27445   0.27598   0.27943   0.28880   0.29311
 Alpha virt. eigenvalues --    0.29336   0.30205   0.31480   0.31819   0.32620
 Alpha virt. eigenvalues --    0.33153   0.33646   0.34776   0.35108   0.35232
 Alpha virt. eigenvalues --    0.36105   0.36219   0.36903   0.36935   0.38512
 Alpha virt. eigenvalues --    0.39665   0.41628   0.43359   0.44077   0.44748
 Alpha virt. eigenvalues --    0.45645   0.46511   0.47419   0.54779   0.56465
 Alpha virt. eigenvalues --    0.58219   0.59500   0.63316   0.64571   0.65663
 Alpha virt. eigenvalues --    0.66959   0.70532   0.70820   0.71223   0.73915
 Alpha virt. eigenvalues --    0.75122   0.75946   0.77630   0.77970   0.78802
 Alpha virt. eigenvalues --    0.79337   0.80074   0.81504   0.83551   0.84396
 Alpha virt. eigenvalues --    0.85525   0.85961   0.86226   0.86681   0.86907
 Alpha virt. eigenvalues --    0.87763   0.88393   0.89097   0.90343   0.91144
 Alpha virt. eigenvalues --    0.93609   0.94634   0.95092   0.95849   0.96071
 Alpha virt. eigenvalues --    0.96473   0.97523   0.97962   0.99010   0.99812
 Alpha virt. eigenvalues --    1.00845   1.01018   1.01152   1.02872   1.04419
 Alpha virt. eigenvalues --    1.09673   1.09829   1.10341   1.10768   1.11617
 Alpha virt. eigenvalues --    1.12486   1.13008   1.14105   1.16304   1.17299
 Alpha virt. eigenvalues --    1.18921   1.24192   1.27439   1.41530   1.43007
 Alpha virt. eigenvalues --    1.43621   1.44661   1.45339   1.45552   1.45725
 Alpha virt. eigenvalues --    1.46454   1.46526   1.46815   1.47571   1.48694
 Alpha virt. eigenvalues --    1.49471   1.50223   1.54616   1.56921   1.57573
 Alpha virt. eigenvalues --    1.58316   1.60243   1.62460   1.65898   1.66885
 Alpha virt. eigenvalues --    1.67404   1.68295   1.68699   1.73250   1.75275
 Alpha virt. eigenvalues --    1.76545   1.77235   1.77819   1.78690   1.80440
 Alpha virt. eigenvalues --    1.92568   1.94297   1.95178   1.96337   1.96714
 Alpha virt. eigenvalues --    1.98105   2.03271   2.05247   2.05750   2.07929
 Alpha virt. eigenvalues --    2.36146   2.38293   2.63855   2.64214   2.84942
 Alpha virt. eigenvalues --    2.86456   2.86926   2.87331   2.88970   2.90477
 Alpha virt. eigenvalues --    3.16723   3.18770   3.19337   3.20420   3.21084
 Alpha virt. eigenvalues --    3.21133   3.21210   3.21796   3.22340   3.24221
 Alpha virt. eigenvalues --    3.25204   3.25516   3.25639   3.26957   3.29506
 Alpha virt. eigenvalues --    3.30567   3.56811   3.57152   3.57241   3.57780
 Alpha virt. eigenvalues --    3.58355   3.58837   3.69335   3.70328   3.70821
 Alpha virt. eigenvalues --    3.71092   3.71599   3.71687   3.71985   3.72522
 Alpha virt. eigenvalues --    3.72834   3.73955   3.74930   3.75566   3.80112
 Alpha virt. eigenvalues --    3.81072   3.81681   3.82278   3.82839   3.83623
 Alpha virt. eigenvalues --    4.17327   4.18105   4.18299   4.18561   4.19496
 Alpha virt. eigenvalues --    4.20613   4.31567   4.32048   4.32555   4.33901
 Alpha virt. eigenvalues --    4.34818   4.35772   4.36113   4.37581   4.38814
 Alpha virt. eigenvalues --    4.40739   4.49533   4.49852   4.49997   4.50132
 Alpha virt. eigenvalues --    4.50232   4.51028   4.73714   4.76152   4.78267
 Alpha virt. eigenvalues --    4.78479   4.78569   4.78664   4.78764   4.79701
 Alpha virt. eigenvalues --    5.13873   5.14393   5.14556   5.14813   5.15045
 Alpha virt. eigenvalues --    5.15273   5.21153   5.22816   5.32108   5.32159
 Alpha virt. eigenvalues --    5.32282   5.32546   5.56970   5.57292   5.57580
 Alpha virt. eigenvalues --    5.58224   5.58662   5.58994   6.01837   6.02927
 Alpha virt. eigenvalues --    6.04414   6.04806   6.06420   6.07483  16.57710
 Alpha virt. eigenvalues --   16.62826
          Condensed to atoms (all electrons):
 Mulliken charges:
               1
     1  C   -1.813300
     2  H    0.446140
     3  H    0.461315
     4  H    0.456731
     5  H    0.447470
     6  Bq   0.000000
     7  Bq   0.000000
     8  Bq   0.000000
     9  Bq   0.000000
    10  C   -1.831968
    11  H    0.451098
    12  H    0.482419
    13  H    0.445576
    14  H    0.454517
    15  Bq   0.000000
    16  Bq   0.000000
    17  Bq   0.000000
    18  Bq   0.000000
 Sum of Mulliken charges =  -0.00000
 Mulliken charges with hydrogens summed into heavy atoms:
               1
     1  C   -1.813300
     6  Bq   0.000000
     7  Bq   1.350342
     8  Bq   0.000000
     9  Bq   0.461315
    10  C   -1.831968
    15  Bq   0.454517
    16  Bq   0.000000
    17  Bq   0.451098
    18  Bq   0.927995
 Electronic spatial extent (au):  <R**2>=            874.7083
 Charge=             -0.0000 electrons
 Dipole moment (field-independent basis, Debye):
    X=             -0.0006    Y=             -0.0024    Z=              0.0005  Tot=              0.0025

 Test job not archived.
 1\1\GINC-CHIMERA-NODE24\SP\RM05\Gen\C2H8\CONNORNM\05-Dec-2018\0\\#T M0
 5/Gen test Massage Symmetry=None SCF=(tight,maxcyc=60)\\M05 opt\\0,1\C
 ,0,0.,0.,0.\H,0,0.57395925,0.,-0.9468668\H,0,0.33143109,-0.84621959,0.
 63249648\H,0,0.17400505,0.95250405,0.53707004\H,0,-1.07939539,-0.10628
 446,-0.22269973\Bq,0,-0.37979725,0.,0.62655565\Bq,0,-0.21931281,0.5599
 5591,-0.4185322\Bq,0,-0.1151417,-0.6302859,-0.35538713\Bq,0,0.71425176
 ,0.07032999,0.14736368\C,0,0.,0.,4.73782371\H,0,1.01648958,-0.43192864
 ,4.81638926\H,0,0.02627468,0.88767993,4.07652201\H,0,-0.69024284,-0.75
 525374,4.31457133\H,0,-0.35252142,0.29950245,5.74381222\Bq,0,-0.672626
 06,0.28581352,4.68583573\Bq,0,-0.01738634,-0.58739083,5.17541674\Bq,0,
 0.45674381,0.49976248,5.01789601\Bq,0,0.23326859,-0.19818516,4.0721463
 5\\Version=AS64L-G09RevD.01\HF=-81.8243993\RMSD=1.792e-09\Dipole=-0.00
 02356,-0.0009503,0.0001884\Quadrupole=0.0071263,0.0063004,-0.0134267,-
 0.00024,-0.0040386,-0.0006352\PG=Unknown\\@


 ALMOST ANYTHING IS EASIER TO GET INTO THAN OUT OF.

                         -- AGNES ALLEN'S LAW FROM
                PAUL DICKSON'S "THE OFFICIAL RULES"
 Job cpu time:       0 days  0 hours 11 minutes 35.5 seconds.
 File lengths (MBytes):  RWF=     41 Int=      0 D2E=      0 Chk=      4 Scr=      1
 Normal termination of Gaussian 09 at Wed Dec  5 21:23:28 2018.
