 Entering Gaussian System, Link 0=/data/szalewicgrp/connornm/opt/Gaussian/g09-M05-par/g09/g09
 AtFile(1): aug-cc-pVTZ.gbs
 Initial command:
 /data/szalewicgrp/connornm/opt/Gaussian/g09-M05-par/g09/l1.exe "/scratch/local/Gau-3891.inp" -scrdir="/scratch/local/"
 Entering Link 1 = /data/szalewicgrp/connornm/opt/Gaussian/g09-M05-par/g09/l1.exe PID=      3892.
  
 Copyright (c) 1988,1990,1992,1993,1995,1998,2003,2009,2013,
            Gaussian, Inc.  All Rights Reserved.
  
 This is part of the Gaussian(R) 09 program.  It is based on
 the Gaussian(R) 03 system (copyright 2003, Gaussian, Inc.),
 the Gaussian(R) 98 system (copyright 1998, Gaussian, Inc.),
 the Gaussian(R) 94 system (copyright 1995, Gaussian, Inc.),
 the Gaussian 92(TM) system (copyright 1992, Gaussian, Inc.),
 the Gaussian 90(TM) system (copyright 1990, Gaussian, Inc.),
 the Gaussian 88(TM) system (copyright 1988, Gaussian, Inc.),
 the Gaussian 86(TM) system (copyright 1986, Carnegie Mellon
 University), and the Gaussian 82(TM) system (copyright 1983,
 Carnegie Mellon University). Gaussian is a federally registered
 trademark of Gaussian, Inc.
  
 This software contains proprietary and confidential information,
 including trade secrets, belonging to Gaussian, Inc.
  
 This software is provided under written license and may be
 used, copied, transmitted, or stored only in accord with that
 written license.
  
 The following legend is applicable only to US Government
 contracts under FAR:
  
                    RESTRICTED RIGHTS LEGEND
  
 Use, reproduction and disclosure by the US Government is
 subject to restrictions as set forth in subparagraphs (a)
 and (c) of the Commercial Computer Software - Restricted
 Rights clause in FAR 52.227-19.
  
 Gaussian, Inc.
 340 Quinnipiac St., Bldg. 40, Wallingford CT 06492
  
  
 ---------------------------------------------------------------
 Warning -- This program may not be used in any manner that
 competes with the business of Gaussian, Inc. or will provide
 assistance to any competitor of Gaussian, Inc.  The licensee
 of this program is prohibited from giving any competitor of
 Gaussian, Inc. access to this program.  By using this program,
 the user acknowledges that Gaussian, Inc. is engaged in the
 business of creating and licensing software in the field of
 computational chemistry and represents and warrants to the
 licensee that it is not a competitor of Gaussian, Inc. and that
 it will not use this program in any manner prohibited above.
 ---------------------------------------------------------------
  

 Cite this work as:
 Gaussian 09, Revision D.01,
 M. J. Frisch, G. W. Trucks, H. B. Schlegel, G. E. Scuseria, 
 M. A. Robb, J. R. Cheeseman, G. Scalmani, V. Barone, B. Mennucci, 
 G. A. Petersson, H. Nakatsuji, M. Caricato, X. Li, H. P. Hratchian, 
 A. F. Izmaylov, J. Bloino, G. Zheng, J. L. Sonnenberg, M. Hada, 
 M. Ehara, K. Toyota, R. Fukuda, J. Hasegawa, M. Ishida, T. Nakajima, 
 Y. Honda, O. Kitao, H. Nakai, T. Vreven, J. A. Montgomery, Jr., 
 J. E. Peralta, F. Ogliaro, M. Bearpark, J. J. Heyd, E. Brothers, 
 K. N. Kudin, V. N. Staroverov, T. Keith, R. Kobayashi, J. Normand, 
 K. Raghavachari, A. Rendell, J. C. Burant, S. S. Iyengar, J. Tomasi, 
 M. Cossi, N. Rega, J. M. Millam, M. Klene, J. E. Knox, J. B. Cross, 
 V. Bakken, C. Adamo, J. Jaramillo, R. Gomperts, R. E. Stratmann, 
 O. Yazyev, A. J. Austin, R. Cammi, C. Pomelli, J. W. Ochterski, 
 R. L. Martin, K. Morokuma, V. G. Zakrzewski, G. A. Voth, 
 P. Salvador, J. J. Dannenberg, S. Dapprich, A. D. Daniels, 
 O. Farkas, J. B. Foresman, J. V. Ortiz, J. Cioslowski, 
 and D. J. Fox, Gaussian, Inc., Wallingford CT, 2013.
 
 ******************************************
 Gaussian 09:  AS64L-G09RevD.01 24-Apr-2013
                 5-Dec-2018 
 ******************************************
 %Chk=CH400289
 %Mem=2GB
 %NProcShared=16
 Will use up to   16 processors via shared memory.
 -----------------------------------------------------------
 #T M05/Gen test Massage Symmetry=None SCF=(tight,maxcyc=60)
 -----------------------------------------------------------
 -------
 M05 opt
 -------
 Symbolic Z-matrix:
 Charge =  0 Multiplicity = 1
 6                     0.        0.        0. 
 1                     0.81945   0.        0.74464 
 1                    -0.71718   0.8086    0.24043 
 1                     0.4198    0.1675   -1.01079 
 1                    -0.52207  -0.9761    0.02572 
 0                    -0.54224   0.       -0.49274 
 0                     0.47457  -0.53506  -0.1591 
 0                    -0.27779  -0.11084   0.66885 
 0                     0.34546   0.6459   -0.01702 
 6                     0.        0.        4.03435 
 1                    -0.0017   -0.72408   3.19668 
 1                    -0.23403  -0.52797   4.97906 
 1                     0.9988    0.47144   4.11268 
 1                    -0.76307   0.78061   3.849 
 0                     0.00112   0.47913   4.58865 
 0                     0.15486   0.34937   3.40923 
 0                    -0.66092  -0.31196   3.98253 
 0                     0.50494  -0.51654   4.157 
 
                    Distance matrix (angstroms):
                    1          2          3          4          5
     1  C    0.000000
     2  H    1.107242   0.000000
     3  H    1.107243   1.808119   0.000000
     4  H    1.107243   1.808119   1.808119   0.000000
     5  H    1.107242   1.808119   1.808119   1.808119   0.000000
     6  Bq   0.732679   1.839921   1.105427   1.105427   1.105427
     7  Bq   0.732679   1.105427   1.839921   1.105427   1.105427
     8  Bq   0.732679   1.105427   1.105427   1.839921   1.105427
     9  Bq   0.732679   1.105427   1.105427   1.105427   1.839921
    10  C    4.034354   3.390242   3.944874   5.065349   4.158660
    11  H    3.277659   2.685346   3.405938   4.321500   3.223241
    12  H    5.012436   4.395324   4.947163   6.065428   4.981897
    13  H    4.258399   3.405600   4.248828   5.165029   4.594737
    14  H    4.000806   3.570830   3.608972   5.039115   4.214447
    15  Bq   4.613602   3.959255   4.419452   5.623716   4.817860
    16  Bq   3.430582   2.768357   3.318530   4.431687   3.696380
    17  Bq   4.049030   3.573897   3.906672   5.131378   4.014556
    18  Bq   4.219295   3.465541   4.311508   5.213563   4.281756
                    6          7          8          9         10
     6  Bq   0.000000
     7  Bq   1.196459   0.000000
     8  Bq   1.196459   1.196459   0.000000
     9  Bq   1.196459   1.196459   1.196459   0.000000
    10  C    4.559449   4.254002   3.378763   4.117057   0.000000
    11  H    3.798457   3.394671   2.615759   3.510729   1.107242
    12  H    5.505839   5.186788   4.330560   5.164741   1.107243
    13  H    4.879231   4.419944   3.718687   4.184695   1.107243
    14  H    4.416879   4.396317   3.338191   4.024070   1.107243
    15  Bq   5.132773   4.877897   3.973750   4.621539   0.732679
    16  Bq   3.979116   3.690175   2.812230   3.444337   0.732679
    17  Bq   4.487692   4.300250   3.341805   4.233990   0.732679
    18  Bq   4.794109   4.316246   3.597838   4.335800   0.732679
                   11         12         13         14         15
    11  H    0.000000
    12  H    1.808119   0.000000
    13  H    1.808119   1.808119   0.000000
    14  H    1.808119   1.808119   1.808119   0.000000
    15  Bq   1.839921   1.105427   1.105427   1.105427   0.000000
    16  Bq   1.105427   1.839921   1.105427   1.105427   1.196459
    17  Bq   1.105427   1.105427   1.839921   1.105427   1.196459
    18  Bq   1.105427   1.105427   1.105427   1.839921   1.196459
                   16         17         18
    16  Bq   0.000000
    17  Bq   1.196459   0.000000
    18  Bq   1.196459   1.196459   0.000000
 Symmetry turned off by external request.
 Rotational constants (GHZ):     76.6916057      3.6874834      3.6874834
 Warning:  center   6 has no basis functions!
 Warning:  center   7 has no basis functions!
 Warning:  center   8 has no basis functions!
 Warning:  center   9 has no basis functions!
 Warning:  center  15 has no basis functions!
 Warning:  center  16 has no basis functions!
 Warning:  center  17 has no basis functions!
 Warning:  center  18 has no basis functions!
   276 basis functions,   360 primitive gaussians,   310 cartesian basis functions
    10 alpha electrons       10 beta electrons
       nuclear repulsion energy        39.5302445349 Hartrees.
 IMHF & INEx in M05                  614413                  385587
 NAtoms=   18 NActive=   18 NUniq=   18 SFac= 1.00D+00 NAtFMM=   60 NAOKFM=F Big=F
 ExpMin= 2.53D-02 ExpMax= 8.24D+03 ExpMxC= 2.81D+02 IAcc=3 IRadAn=         5 AccDes= 0.00D+00
 Harris functional with IExCor= 1009 and IRadAn=       5 diagonalized for initial guess.
 HarFok:  IExCor= 1009 AccDes= 0.00D+00 IRadAn=         5 IDoV= 1 UseB2=F ITyADJ=14
 ICtDFT=  3500011 ScaDFX=  1.000000  1.000000  1.000000  1.000000
 FoFCou: FMM=F IPFlag=           0 FMFlag=      100000 FMFlg1=           0
         NFxFlg=           0 DoJE=T BraDBF=F KetDBF=T FulRan=T
         wScrn=  0.000000 ICntrl=     500 IOpCl=  0 I1Cent=   200000004 NGrid=           0
         NMat0=    1 NMatS0=      1 NMatT0=    0 NMatD0=    1 NMtDS0=    0 NMtDT0=    0
 Symmetry not used in FoFCou.
 SCF Done:  E(RM05) =  -81.8239772157     A.U. after    8 cycles
            NFock=  8  Conv=0.50D-08     -V/T= 2.0127

 **********************************************************************

            Population analysis using the SCF density.

 **********************************************************************

 Alpha  occ. eigenvalues --  -10.74499 -10.74468  -0.82889  -0.82595  -0.49412
 Alpha  occ. eigenvalues --   -0.48861  -0.48833  -0.48628  -0.48579  -0.48021
 Alpha virt. eigenvalues --   -0.00524   0.01291   0.02361   0.02446   0.03665
 Alpha virt. eigenvalues --    0.04505   0.04563   0.06255   0.07933   0.08711
 Alpha virt. eigenvalues --    0.08807   0.09784   0.10325   0.10728   0.11591
 Alpha virt. eigenvalues --    0.12003   0.13325   0.14734   0.15373   0.15727
 Alpha virt. eigenvalues --    0.15935   0.16716   0.17905   0.20722   0.21728
 Alpha virt. eigenvalues --    0.24880   0.25704   0.26366   0.27131   0.27399
 Alpha virt. eigenvalues --    0.27506   0.28193   0.28355   0.29049   0.29371
 Alpha virt. eigenvalues --    0.30534   0.30882   0.31616   0.32267   0.33085
 Alpha virt. eigenvalues --    0.34211   0.34505   0.34836   0.36168   0.36443
 Alpha virt. eigenvalues --    0.37259   0.37837   0.38410   0.39625   0.40488
 Alpha virt. eigenvalues --    0.41384   0.42896   0.43518   0.44495   0.45223
 Alpha virt. eigenvalues --    0.46860   0.48929   0.49415   0.57315   0.59517
 Alpha virt. eigenvalues --    0.60756   0.63261   0.63827   0.64949   0.65158
 Alpha virt. eigenvalues --    0.70068   0.70360   0.70979   0.72462   0.74476
 Alpha virt. eigenvalues --    0.75854   0.76789   0.77846   0.78023   0.78891
 Alpha virt. eigenvalues --    0.79679   0.80140   0.82049   0.83332   0.84813
 Alpha virt. eigenvalues --    0.85761   0.85841   0.86137   0.87989   0.88703
 Alpha virt. eigenvalues --    0.88880   0.89888   0.91237   0.91711   0.92994
 Alpha virt. eigenvalues --    0.93347   0.94124   0.94957   0.96491   0.97192
 Alpha virt. eigenvalues --    0.98504   0.98857   1.00185   1.01230   1.02098
 Alpha virt. eigenvalues --    1.02813   1.03992   1.04856   1.08371   1.08751
 Alpha virt. eigenvalues --    1.10041   1.10704   1.12390   1.12622   1.14425
 Alpha virt. eigenvalues --    1.14551   1.15644   1.17674   1.20924   1.23711
 Alpha virt. eigenvalues --    1.28464   1.30213   1.31054   1.42568   1.43951
 Alpha virt. eigenvalues --    1.44354   1.44950   1.45498   1.45922   1.46093
 Alpha virt. eigenvalues --    1.47058   1.47839   1.49228   1.50095   1.51353
 Alpha virt. eigenvalues --    1.52194   1.54582   1.57209   1.59302   1.60067
 Alpha virt. eigenvalues --    1.62052   1.64400   1.66242   1.67542   1.68250
 Alpha virt. eigenvalues --    1.70113   1.71877   1.73524   1.74253   1.76663
 Alpha virt. eigenvalues --    1.77622   1.81227   1.82582   1.83751   1.84026
 Alpha virt. eigenvalues --    1.94076   1.96568   1.97083   1.98252   2.00877
 Alpha virt. eigenvalues --    2.01806   2.05557   2.06221   2.07593   2.14632
 Alpha virt. eigenvalues --    2.37117   2.40054   2.67863   2.70866   2.85174
 Alpha virt. eigenvalues --    2.85726   2.89102   2.91222   2.92096   2.93495
 Alpha virt. eigenvalues --    3.18302   3.18941   3.20373   3.20815   3.21196
 Alpha virt. eigenvalues --    3.21720   3.22370   3.23114   3.25162   3.25643
 Alpha virt. eigenvalues --    3.27220   3.28384   3.29724   3.31234   3.32523
 Alpha virt. eigenvalues --    3.36815   3.57198   3.57566   3.57863   3.59193
 Alpha virt. eigenvalues --    3.59956   3.60584   3.69653   3.70587   3.70703
 Alpha virt. eigenvalues --    3.71666   3.72013   3.73203   3.73647   3.74613
 Alpha virt. eigenvalues --    3.75678   3.77872   3.78188   3.80929   3.81906
 Alpha virt. eigenvalues --    3.82372   3.82809   3.84047   3.87748   3.90533
 Alpha virt. eigenvalues --    4.18016   4.18748   4.18848   4.19852   4.20480
 Alpha virt. eigenvalues --    4.20886   4.32593   4.32878   4.33411   4.34662
 Alpha virt. eigenvalues --    4.36026   4.37491   4.39121   4.40121   4.43193
 Alpha virt. eigenvalues --    4.46048   4.49546   4.50416   4.50540   4.51258
 Alpha virt. eigenvalues --    4.52537   4.54605   4.75534   4.77587   4.78313
 Alpha virt. eigenvalues --    4.78805   4.79060   4.79939   4.80371   4.81591
 Alpha virt. eigenvalues --    5.14229   5.14510   5.14779   5.15330   5.15985
 Alpha virt. eigenvalues --    5.16708   5.22006   5.23938   5.31416   5.32187
 Alpha virt. eigenvalues --    5.32707   5.33692   5.57123   5.57825   5.57974
 Alpha virt. eigenvalues --    5.58675   5.60694   5.61398   6.02770   6.04216
 Alpha virt. eigenvalues --    6.06520   6.07129   6.08496   6.09690  16.61284
 Alpha virt. eigenvalues --   16.75930
          Condensed to atoms (all electrons):
 Mulliken charges:
               1
     1  C   -1.867637
     2  H    0.494577
     3  H    0.474270
     4  H    0.431711
     5  H    0.470178
     6  Bq   0.000000
     7  Bq   0.000000
     8  Bq   0.000000
     9  Bq   0.000000
    10  C   -1.867855
    11  H    0.520879
    12  H    0.425903
    13  H    0.459697
    14  H    0.458277
    15  Bq   0.000000
    16  Bq   0.000000
    17  Bq   0.000000
    18  Bq   0.000000
 Sum of Mulliken charges =  -0.00000
 Mulliken charges with hydrogens summed into heavy atoms:
               1
     1  C   -1.867637
     6  Bq   0.000000
     7  Bq   0.470178
     8  Bq   0.494577
     9  Bq   0.905981
    10  C   -1.867855
    15  Bq   0.425903
    16  Bq   0.980576
    17  Bq   0.458277
    18  Bq   0.000000
 Electronic spatial extent (au):  <R**2>=            654.3984
 Charge=             -0.0000 electrons
 Dipole moment (field-independent basis, Debye):
    X=             -0.0031    Y=              0.0043    Z=             -0.0064  Tot=              0.0083

 Test job not archived.
 1\1\GINC-CHIMERA-NODE14\SP\RM05\Gen\C2H8\CONNORNM\05-Dec-2018\0\\#T M0
 5/Gen test Massage Symmetry=None SCF=(tight,maxcyc=60)\\M05 opt\\0,1\C
 ,0,0.,0.,0.\H,0,0.81945221,0.,0.74463684\H,0,-0.71718119,0.8085976,0.2
 4043093\H,0,0.41980369,0.16749786,-1.01078944\H,0,-0.52207472,-0.97609
 545,0.02572167\Bq,0,-0.54224355,0.,-0.49273712\Bq,0,0.47456931,-0.5350
 6089,-0.15909667\Bq,0,-0.27779026,-0.11083579,0.6688542\Bq,0,0.3454645
 ,0.64589668,-0.01702041\C,0,0.,0.,4.03435364\H,0,-0.00169606,-0.724075
 84,3.19667993\H,0,-0.23402731,-0.52797346,4.97905529\H,0,0.99879685,0.
 47144067,4.1126767\H,0,-0.76307348,0.78060863,3.84900266\Bq,0,0.001122
 31,0.4791316,4.58865463\Bq,0,0.15485931,0.34936778,3.40923071\Bq,0,-0.
 66091853,-0.31195921,3.98252613\Bq,0,0.50493691,-0.51654018,4.15700311
 \\Version=AS64L-G09RevD.01\HF=-81.8239772\RMSD=4.967e-09\Dipole=-0.001
 2023,0.0016883,-0.0025308\Quadrupole=0.0282392,0.0281466,-0.0563858,-0
 .0004342,-0.0109937,-0.0019952\PG=Unknown\\@


 THE MOLECULE ALSO HAS A BODY.  WHEN THIS BODY IS HIT, THE MOLECULE
 FEELS HURT ALL OVER -- A. KITAIGORODSKI
 Job cpu time:       0 days  0 hours 12 minutes 55.4 seconds.
 File lengths (MBytes):  RWF=     41 Int=      0 D2E=      0 Chk=      4 Scr=      1
 Normal termination of Gaussian 09 at Wed Dec  5 21:15:55 2018.
