 Entering Gaussian System, Link 0=/data/szalewicgrp/connornm/opt/Gaussian/g09-M05-par/g09/g09
 AtFile(1): aug-cc-pVTZ.gbs
 Initial command:
 /data/szalewicgrp/connornm/opt/Gaussian/g09-M05-par/g09/l1.exe "/scratch/local/Gau-40773.inp" -scrdir="/scratch/local/"
 Entering Link 1 = /data/szalewicgrp/connornm/opt/Gaussian/g09-M05-par/g09/l1.exe PID=     40774.
  
 Copyright (c) 1988,1990,1992,1993,1995,1998,2003,2009,2013,
            Gaussian, Inc.  All Rights Reserved.
  
 This is part of the Gaussian(R) 09 program.  It is based on
 the Gaussian(R) 03 system (copyright 2003, Gaussian, Inc.),
 the Gaussian(R) 98 system (copyright 1998, Gaussian, Inc.),
 the Gaussian(R) 94 system (copyright 1995, Gaussian, Inc.),
 the Gaussian 92(TM) system (copyright 1992, Gaussian, Inc.),
 the Gaussian 90(TM) system (copyright 1990, Gaussian, Inc.),
 the Gaussian 88(TM) system (copyright 1988, Gaussian, Inc.),
 the Gaussian 86(TM) system (copyright 1986, Carnegie Mellon
 University), and the Gaussian 82(TM) system (copyright 1983,
 Carnegie Mellon University). Gaussian is a federally registered
 trademark of Gaussian, Inc.
  
 This software contains proprietary and confidential information,
 including trade secrets, belonging to Gaussian, Inc.
  
 This software is provided under written license and may be
 used, copied, transmitted, or stored only in accord with that
 written license.
  
 The following legend is applicable only to US Government
 contracts under FAR:
  
                    RESTRICTED RIGHTS LEGEND
  
 Use, reproduction and disclosure by the US Government is
 subject to restrictions as set forth in subparagraphs (a)
 and (c) of the Commercial Computer Software - Restricted
 Rights clause in FAR 52.227-19.
  
 Gaussian, Inc.
 340 Quinnipiac St., Bldg. 40, Wallingford CT 06492
  
  
 ---------------------------------------------------------------
 Warning -- This program may not be used in any manner that
 competes with the business of Gaussian, Inc. or will provide
 assistance to any competitor of Gaussian, Inc.  The licensee
 of this program is prohibited from giving any competitor of
 Gaussian, Inc. access to this program.  By using this program,
 the user acknowledges that Gaussian, Inc. is engaged in the
 business of creating and licensing software in the field of
 computational chemistry and represents and warrants to the
 licensee that it is not a competitor of Gaussian, Inc. and that
 it will not use this program in any manner prohibited above.
 ---------------------------------------------------------------
  

 Cite this work as:
 Gaussian 09, Revision D.01,
 M. J. Frisch, G. W. Trucks, H. B. Schlegel, G. E. Scuseria, 
 M. A. Robb, J. R. Cheeseman, G. Scalmani, V. Barone, B. Mennucci, 
 G. A. Petersson, H. Nakatsuji, M. Caricato, X. Li, H. P. Hratchian, 
 A. F. Izmaylov, J. Bloino, G. Zheng, J. L. Sonnenberg, M. Hada, 
 M. Ehara, K. Toyota, R. Fukuda, J. Hasegawa, M. Ishida, T. Nakajima, 
 Y. Honda, O. Kitao, H. Nakai, T. Vreven, J. A. Montgomery, Jr., 
 J. E. Peralta, F. Ogliaro, M. Bearpark, J. J. Heyd, E. Brothers, 
 K. N. Kudin, V. N. Staroverov, T. Keith, R. Kobayashi, J. Normand, 
 K. Raghavachari, A. Rendell, J. C. Burant, S. S. Iyengar, J. Tomasi, 
 M. Cossi, N. Rega, J. M. Millam, M. Klene, J. E. Knox, J. B. Cross, 
 V. Bakken, C. Adamo, J. Jaramillo, R. Gomperts, R. E. Stratmann, 
 O. Yazyev, A. J. Austin, R. Cammi, C. Pomelli, J. W. Ochterski, 
 R. L. Martin, K. Morokuma, V. G. Zakrzewski, G. A. Voth, 
 P. Salvador, J. J. Dannenberg, S. Dapprich, A. D. Daniels, 
 O. Farkas, J. B. Foresman, J. V. Ortiz, J. Cioslowski, 
 and D. J. Fox, Gaussian, Inc., Wallingford CT, 2013.
 
 ******************************************
 Gaussian 09:  AS64L-G09RevD.01 24-Apr-2013
                 6-Dec-2018 
 ******************************************
 %Chk=CH400020
 %Mem=2GB
 %NProcShared=16
 Will use up to   16 processors via shared memory.
 -----------------------------------------------------------
 #T M05/Gen test Massage Symmetry=None SCF=(tight,maxcyc=60)
 -----------------------------------------------------------
 -------
 M05 opt
 -------
 Symbolic Z-matrix:
 Charge =  0 Multiplicity = 1
 6                     0.        0.        0. 
 1                     1.02504   0.       -0.41867 
 1                    -0.59885   0.79196  -0.49008 
 1                    -0.47243  -0.98498  -0.18056 
 1                     0.04624   0.19303   1.08931 
 0                    -0.67828   0.        0.27704 
 0                     0.39627  -0.52405   0.32429 
 0                     0.31261   0.65178   0.11948 
 0                    -0.0306   -0.12773  -0.72081 
 6                     0.        0.        4.4896 
 1                    -0.95955   0.07822   5.03652 
 1                     0.48389  -0.96656   4.72959 
 1                    -0.19032   0.05706   3.40033 
 1                     0.66599   0.83128   4.79195 
 0                     0.63495  -0.05176   4.12769 
 0                    -0.32019   0.63959   4.33079 
 0                     0.12594  -0.03776   5.21038 
 0                    -0.44069  -0.55007   4.28953 
 
                    Distance matrix (angstroms):
                    1          2          3          4          5
     1  C    0.000000
     2  H    1.107242   0.000000
     3  H    1.107243   1.808119   0.000000
     4  H    1.107242   1.808119   1.808119   0.000000
     5  H    1.107242   1.808119   1.808119   1.808119   0.000000
     6  Bq   0.732679   1.839921   1.105427   1.105427   1.105427
     7  Bq   0.732679   1.105427   1.839921   1.105427   1.105427
     8  Bq   0.732679   1.105427   1.105427   1.839921   1.105427
     9  Bq   0.732679   1.105427   1.105427   1.105427   1.839921
    10  C    4.489599   5.014160   5.077693   4.796225   3.406081
    11  H    5.127711   5.805500   5.584157   5.346556   4.074962
    12  H    4.851538   5.266087   5.613343   5.002447   3.845499
    13  H    3.406129   4.008129   3.980228   3.740082   2.327075
    14  H    4.908908   5.288716   5.431498   5.414859   3.808023
    15  Bq   4.176563   4.563358   4.853646   4.545133   3.104559
    16  Bq   4.389460   4.977560   4.831318   4.797366   3.292556
    17  Bq   5.212043   5.700531   5.805944   5.506140   4.128305
    18  Bq   4.347049   4.961659   4.966956   4.491308   3.321252
                    6          7          8          9         10
     6  Bq   0.000000
     7  Bq   1.196459   0.000000
     8  Bq   1.196459   1.196459   0.000000
     9  Bq   1.196459   1.196459   1.196459   0.000000
    10  C    4.266816   4.216805   4.429501   5.212064   0.000000
    11  H    4.768429   4.940254   5.111231   5.835431   1.107243
    12  H    4.702137   4.428337   4.888915   5.538520   1.107243
    13  H    3.161693   3.184931   3.372033   4.128371   1.107243
    14  H    4.783568   4.676502   4.689253   5.638748   1.107242
    15  Bq   4.068756   3.840037   4.082233   4.894557   0.732679
    16  Bq   4.119492   4.233134   4.258608   5.117746   0.732679
    17  Bq   4.998609   4.917669   5.140780   5.933942   0.732679
    18  Bq   4.056980   4.052688   4.404680   5.044802   0.732679
                   11         12         13         14         15
    11  H    0.000000
    12  H    1.808119   0.000000
    13  H    1.808119   1.808119   0.000000
    14  H    1.808119   1.808119   1.808119   0.000000
    15  Bq   1.839921   1.105427   1.105427   1.105427   0.000000
    16  Bq   1.105427   1.839921   1.105427   1.105427   1.196459
    17  Bq   1.105427   1.105427   1.839921   1.105427   1.196459
    18  Bq   1.105427   1.105427   1.105427   1.839921   1.196459
                   16         17         18
    16  Bq   0.000000
    17  Bq   1.196459   0.000000
    18  Bq   1.196459   1.196459   0.000000
 Symmetry turned off by external request.
 Rotational constants (GHZ):     76.6916057      3.0053965      3.0053965
 Warning:  center   6 has no basis functions!
 Warning:  center   7 has no basis functions!
 Warning:  center   8 has no basis functions!
 Warning:  center   9 has no basis functions!
 Warning:  center  15 has no basis functions!
 Warning:  center  16 has no basis functions!
 Warning:  center  17 has no basis functions!
 Warning:  center  18 has no basis functions!
   276 basis functions,   360 primitive gaussians,   310 cartesian basis functions
    10 alpha electrons       10 beta electrons
       nuclear repulsion energy        38.3217867794 Hartrees.
 IMHF & INEx in M05                  614413                  385587
 NAtoms=   18 NActive=   18 NUniq=   18 SFac= 1.00D+00 NAtFMM=   60 NAOKFM=F Big=F
 ExpMin= 2.53D-02 ExpMax= 8.24D+03 ExpMxC= 2.81D+02 IAcc=3 IRadAn=         5 AccDes= 0.00D+00
 Harris functional with IExCor= 1009 and IRadAn=       5 diagonalized for initial guess.
 HarFok:  IExCor= 1009 AccDes= 0.00D+00 IRadAn=         5 IDoV= 1 UseB2=F ITyADJ=14
 ICtDFT=  3500011 ScaDFX=  1.000000  1.000000  1.000000  1.000000
 FoFCou: FMM=F IPFlag=           0 FMFlag=      100000 FMFlg1=           0
         NFxFlg=           0 DoJE=T BraDBF=F KetDBF=T FulRan=T
         wScrn=  0.000000 ICntrl=     500 IOpCl=  0 I1Cent=   200000004 NGrid=           0
         NMat0=    1 NMatS0=      1 NMatT0=    0 NMatD0=    1 NMtDS0=    0 NMtDT0=    0
 Symmetry not used in FoFCou.
 SCF Done:  E(RM05) =  -81.8238832513     A.U. after    8 cycles
            NFock=  8  Conv=0.24D-08     -V/T= 2.0126

 **********************************************************************

            Population analysis using the SCF density.

 **********************************************************************

 Alpha  occ. eigenvalues --  -10.74550 -10.74549  -0.82913  -0.82709  -0.49790
 Alpha  occ. eigenvalues --   -0.48805  -0.48798  -0.48759  -0.48756  -0.47869
 Alpha virt. eigenvalues --   -0.00523   0.01100   0.02358   0.02421   0.03859
 Alpha virt. eigenvalues --    0.03981   0.04418   0.06584   0.08302   0.08512
 Alpha virt. eigenvalues --    0.08579   0.09298   0.09917   0.10103   0.12494
 Alpha virt. eigenvalues --    0.12787   0.14427   0.15005   0.15096   0.15335
 Alpha virt. eigenvalues --    0.15791   0.16099   0.17520   0.19827   0.20906
 Alpha virt. eigenvalues --    0.24473   0.25159   0.26435   0.27127   0.27857
 Alpha virt. eigenvalues --    0.28529   0.28715   0.28908   0.29238   0.29529
 Alpha virt. eigenvalues --    0.30038   0.31055   0.31755   0.31960   0.32497
 Alpha virt. eigenvalues --    0.33023   0.34505   0.35018   0.35366   0.35621
 Alpha virt. eigenvalues --    0.36903   0.37476   0.38526   0.39234   0.39679
 Alpha virt. eigenvalues --    0.40213   0.42577   0.43442   0.44382   0.44798
 Alpha virt. eigenvalues --    0.47608   0.50867   0.54253   0.56732   0.58037
 Alpha virt. eigenvalues --    0.59776   0.61489   0.65827   0.69049   0.70636
 Alpha virt. eigenvalues --    0.70925   0.71264   0.71583   0.71977   0.72451
 Alpha virt. eigenvalues --    0.74093   0.77166   0.77774   0.77856   0.78292
 Alpha virt. eigenvalues --    0.78812   0.80626   0.82194   0.84077   0.85697
 Alpha virt. eigenvalues --    0.86070   0.86189   0.86443   0.87543   0.88615
 Alpha virt. eigenvalues --    0.89243   0.90514   0.91800   0.93069   0.93600
 Alpha virt. eigenvalues --    0.94872   0.95175   0.95952   0.96384   0.96735
 Alpha virt. eigenvalues --    0.97700   0.98234   0.98753   0.99770   1.00737
 Alpha virt. eigenvalues --    1.03051   1.03704   1.04331   1.05465   1.07622
 Alpha virt. eigenvalues --    1.09776   1.10197   1.10661   1.12642   1.14084
 Alpha virt. eigenvalues --    1.15071   1.16869   1.19304   1.19447   1.20857
 Alpha virt. eigenvalues --    1.24514   1.29333   1.40127   1.43046   1.43419
 Alpha virt. eigenvalues --    1.44916   1.45248   1.45665   1.45892   1.45975
 Alpha virt. eigenvalues --    1.46468   1.47870   1.48599   1.51168   1.51366
 Alpha virt. eigenvalues --    1.53794   1.55256   1.56650   1.60115   1.60949
 Alpha virt. eigenvalues --    1.61699   1.64934   1.67590   1.68162   1.69367
 Alpha virt. eigenvalues --    1.73695   1.75046   1.75278   1.75575   1.77441
 Alpha virt. eigenvalues --    1.78135   1.80189   1.81633   1.83314   1.85301
 Alpha virt. eigenvalues --    1.95331   1.96898   1.99875   2.01787   2.02635
 Alpha virt. eigenvalues --    2.03544   2.07288   2.07901   2.15802   2.20161
 Alpha virt. eigenvalues --    2.52311   2.61810   2.76286   2.79591   2.86625
 Alpha virt. eigenvalues --    2.87878   2.89734   2.89969   2.93095   2.97394
 Alpha virt. eigenvalues --    3.16966   3.17492   3.19092   3.20245   3.21177
 Alpha virt. eigenvalues --    3.21257   3.23585   3.24408   3.24930   3.25245
 Alpha virt. eigenvalues --    3.26206   3.26876   3.27474   3.31811   3.35587
 Alpha virt. eigenvalues --    3.41023   3.58214   3.58517   3.59088   3.61173
 Alpha virt. eigenvalues --    3.66417   3.70856   3.71271   3.71280   3.71493
 Alpha virt. eigenvalues --    3.71637   3.71982   3.73005   3.74209   3.75886
 Alpha virt. eigenvalues --    3.76429   3.78652   3.80014   3.81963   3.82876
 Alpha virt. eigenvalues --    3.83768   3.84172   3.85069   3.85590   3.87346
 Alpha virt. eigenvalues --    4.17761   4.18633   4.18955   4.19240   4.19876
 Alpha virt. eigenvalues --    4.21228   4.33600   4.33928   4.35383   4.35802
 Alpha virt. eigenvalues --    4.36402   4.38028   4.38603   4.39759   4.43136
 Alpha virt. eigenvalues --    4.45727   4.49583   4.49640   4.50478   4.52285
 Alpha virt. eigenvalues --    4.52617   4.56304   4.78004   4.78061   4.78578
 Alpha virt. eigenvalues --    4.79066   4.79566   4.83868   4.95234   4.98210
 Alpha virt. eigenvalues --    5.13820   5.13920   5.14519   5.15267   5.15924
 Alpha virt. eigenvalues --    5.16200   5.22473   5.24505   5.32459   5.32559
 Alpha virt. eigenvalues --    5.32738   5.33329   5.56941   5.57945   5.58425
 Alpha virt. eigenvalues --    5.59151   5.64089   5.64253   6.03917   6.04202
 Alpha virt. eigenvalues --    6.05371   6.07363   6.08309   6.13489  16.96608
 Alpha virt. eigenvalues --   17.14276
          Condensed to atoms (all electrons):
 Mulliken charges:
               1
     1  C   -1.883258
     2  H    0.410242
     3  H    0.410825
     4  H    0.410289
     5  H    0.650426
     6  Bq   0.000000
     7  Bq   0.000000
     8  Bq   0.000000
     9  Bq   0.000000
    10  C   -1.884345
    11  H    0.406463
    12  H    0.411198
    13  H    0.655275
    14  H    0.412886
    15  Bq   0.000000
    16  Bq   0.000000
    17  Bq   0.000000
    18  Bq   0.000000
 Sum of Mulliken charges =  -0.00000
 Mulliken charges with hydrogens summed into heavy atoms:
               1
     1  C   -1.883258
     6  Bq   0.650426
     7  Bq   0.410242
     8  Bq   0.000000
     9  Bq   0.821114
    10  C   -1.884345
    15  Bq   0.824083
    16  Bq   0.000000
    17  Bq   0.000000
    18  Bq   1.061738
 Electronic spatial extent (au):  <R**2>=            792.8479
 Charge=             -0.0000 electrons
 Dipole moment (field-independent basis, Debye):
    X=              0.0024    Y=             -0.0042    Z=             -0.0000  Tot=              0.0048

 Test job not archived.
 1\1\GINC-CHIMERA-NODE24\SP\RM05\Gen\C2H8\CONNORNM\06-Dec-2018\0\\#T M0
 5/Gen test Massage Symmetry=None SCF=(tight,maxcyc=60)\\M05 opt\\0,1\C
 ,0,0.,0.,0.\H,0,1.02503758,0.,-0.41866921\H,0,-0.5988479,0.79195514,-0
 .49007572\H,0,-0.47242886,-0.98498458,-0.18056106\H,0,0.04623917,0.193
 02944,1.08930598\Bq,0,-0.6782824,0.,0.27703956\Bq,0,0.39626644,-0.5240
 4833,0.32429029\Bq,0,0.31261311,0.65177875,0.1194799\Bq,0,-0.03059714,
 -0.12773041,-0.72080975\C,0,0.,0.,4.48959875\H,0,-0.95955291,0.0782206
 3,5.03652261\H,0,0.48388623,-0.96656282,4.72959122\H,0,-0.19032019,0.0
 5706009,3.40032912\H,0,0.66598686,0.8312821,4.79195206\Bq,0,0.63495023
 ,-0.05175974,4.12769122\Bq,0,-0.32019462,0.6395888,4.33079222\Bq,0,0.1
 2593766,-0.0377575,5.21038445\Bq,0,-0.44069328,-0.55007156,4.28952714\
 \Version=AS64L-G09RevD.01\HF=-81.8238833\RMSD=2.407e-09\Dipole=0.00093
 17,-0.0016426,-0.0000165\Quadrupole=-0.0025608,-0.003595,0.0061558,-0.
 0000169,-0.0003949,-0.0094288\PG=Unknown\\@


 THE MORE POWERFUL THE METHOD, THE MORE CATASTROPHIC THE ERRORS.
     -- M.D. KAMEN
 Job cpu time:       0 days  0 hours 11 minutes 56.3 seconds.
 File lengths (MBytes):  RWF=     41 Int=      0 D2E=      0 Chk=      4 Scr=      1
 Normal termination of Gaussian 09 at Thu Dec  6 13:21:29 2018.
