 Entering Gaussian System, Link 0=/data/szalewicgrp/connornm/opt/Gaussian/g09-M05-par/g09/g09
 AtFile(1): aug-cc-pVTZ.gbs
 Initial command:
 /data/szalewicgrp/connornm/opt/Gaussian/g09-M05-par/g09/l1.exe "/scratch/local/Gau-5380.inp" -scrdir="/scratch/local/"
 Entering Link 1 = /data/szalewicgrp/connornm/opt/Gaussian/g09-M05-par/g09/l1.exe PID=      5381.
  
 Copyright (c) 1988,1990,1992,1993,1995,1998,2003,2009,2013,
            Gaussian, Inc.  All Rights Reserved.
  
 This is part of the Gaussian(R) 09 program.  It is based on
 the Gaussian(R) 03 system (copyright 2003, Gaussian, Inc.),
 the Gaussian(R) 98 system (copyright 1998, Gaussian, Inc.),
 the Gaussian(R) 94 system (copyright 1995, Gaussian, Inc.),
 the Gaussian 92(TM) system (copyright 1992, Gaussian, Inc.),
 the Gaussian 90(TM) system (copyright 1990, Gaussian, Inc.),
 the Gaussian 88(TM) system (copyright 1988, Gaussian, Inc.),
 the Gaussian 86(TM) system (copyright 1986, Carnegie Mellon
 University), and the Gaussian 82(TM) system (copyright 1983,
 Carnegie Mellon University). Gaussian is a federally registered
 trademark of Gaussian, Inc.
  
 This software contains proprietary and confidential information,
 including trade secrets, belonging to Gaussian, Inc.
  
 This software is provided under written license and may be
 used, copied, transmitted, or stored only in accord with that
 written license.
  
 The following legend is applicable only to US Government
 contracts under FAR:
  
                    RESTRICTED RIGHTS LEGEND
  
 Use, reproduction and disclosure by the US Government is
 subject to restrictions as set forth in subparagraphs (a)
 and (c) of the Commercial Computer Software - Restricted
 Rights clause in FAR 52.227-19.
  
 Gaussian, Inc.
 340 Quinnipiac St., Bldg. 40, Wallingford CT 06492
  
  
 ---------------------------------------------------------------
 Warning -- This program may not be used in any manner that
 competes with the business of Gaussian, Inc. or will provide
 assistance to any competitor of Gaussian, Inc.  The licensee
 of this program is prohibited from giving any competitor of
 Gaussian, Inc. access to this program.  By using this program,
 the user acknowledges that Gaussian, Inc. is engaged in the
 business of creating and licensing software in the field of
 computational chemistry and represents and warrants to the
 licensee that it is not a competitor of Gaussian, Inc. and that
 it will not use this program in any manner prohibited above.
 ---------------------------------------------------------------
  

 Cite this work as:
 Gaussian 09, Revision D.01,
 M. J. Frisch, G. W. Trucks, H. B. Schlegel, G. E. Scuseria, 
 M. A. Robb, J. R. Cheeseman, G. Scalmani, V. Barone, B. Mennucci, 
 G. A. Petersson, H. Nakatsuji, M. Caricato, X. Li, H. P. Hratchian, 
 A. F. Izmaylov, J. Bloino, G. Zheng, J. L. Sonnenberg, M. Hada, 
 M. Ehara, K. Toyota, R. Fukuda, J. Hasegawa, M. Ishida, T. Nakajima, 
 Y. Honda, O. Kitao, H. Nakai, T. Vreven, J. A. Montgomery, Jr., 
 J. E. Peralta, F. Ogliaro, M. Bearpark, J. J. Heyd, E. Brothers, 
 K. N. Kudin, V. N. Staroverov, T. Keith, R. Kobayashi, J. Normand, 
 K. Raghavachari, A. Rendell, J. C. Burant, S. S. Iyengar, J. Tomasi, 
 M. Cossi, N. Rega, J. M. Millam, M. Klene, J. E. Knox, J. B. Cross, 
 V. Bakken, C. Adamo, J. Jaramillo, R. Gomperts, R. E. Stratmann, 
 O. Yazyev, A. J. Austin, R. Cammi, C. Pomelli, J. W. Ochterski, 
 R. L. Martin, K. Morokuma, V. G. Zakrzewski, G. A. Voth, 
 P. Salvador, J. J. Dannenberg, S. Dapprich, A. D. Daniels, 
 O. Farkas, J. B. Foresman, J. V. Ortiz, J. Cioslowski, 
 and D. J. Fox, Gaussian, Inc., Wallingford CT, 2013.
 
 ******************************************
 Gaussian 09:  AS64L-G09RevD.01 24-Apr-2013
                18-Dec-2018 
 ******************************************
 %Chk=BLIND02262
 %Mem=2GB
 %NProcShared=16
 Will use up to   16 processors via shared memory.
 ------------------------------------------------------------
 #T M05/Gen test Massage Symmetry=None SCF=(fermi,maxcyc=120)
 ------------------------------------------------------------
 -------
 M05 opt
 -------
 Symbolic Z-matrix:
 Charge =  0 Multiplicity = 1
 6-Bq                  0.3056   -0.91886   0.32157 
 6-Bq                 -0.35873  -0.15449   1.32169 
 16-Bq                 1.26661  -0.25225  -0.99014 
 16-Bq                -0.35013   1.61474   1.38755 
 6-Bq                  0.40206   1.26804  -1.2824 
 6-Bq                 -0.23697   2.00677  -0.33713 
 6-Bq                  0.13981  -2.2647    0.57955 
 7-Bq                 -0.98505  -0.81243   2.26651 
 16-Bq                -0.78832  -2.44865   2.03198 
 6-Bq                  0.46993   1.69828  -2.63937 
 7-Bq                  0.57312   2.01982  -3.75165 
 6-Bq                 -0.86368   3.24375  -0.67038 
 7-Bq                 -1.36202   4.27043  -0.89063 
 6-Bq                  0.64114  -3.36841  -0.15233 
 7-Bq                  1.05223  -4.286    -0.73554 
 6                     0.50371  -0.65857   7.1768 
 6                    -0.90269  -0.87523   7.14648 
 16                    1.45532  -0.00075   5.85384 
 16                   -1.93781  -0.48213   5.76496 
 6                     0.27418   1.10296   5.12525 
 6                    -1.07069   0.9086    5.09045 
 6                     1.01706  -1.1098    8.37604 
 7                    -1.44985  -1.43142   8.19963 
 16                   -0.27236  -1.77404   9.32526 
 6                     0.87541   2.24009   4.5116 
 7                     1.41305   3.13742   4.00471 
 6                    -1.93114   1.83835   4.43537 
 7                    -2.66628   2.55345   3.88845 
 6                     2.3629   -1.09817   8.8162 
 7                     3.46353  -1.10512   9.18991 
 
                    Distance matrix (angstroms):
                    1          2          3          4          5
     1  C    0.000000
     2  C    1.423315   0.000000
     3  S    1.757418   2.827694   0.000000
     4  S    2.825849   1.770477   3.428253   0.000000
     5  C    2.713774   3.063280   1.773167   2.795470   0.000000
     6  C    3.047557   2.727187   2.791121   1.772288   1.359281
     7  C    1.380327   2.291783   2.789903   3.992857   4.001979
     8  N    2.336642   1.310672   3.998700   2.658358   4.341342
     9  S    2.542129   2.439721   4.263822   4.137445   5.120151
    10  C    3.955208   4.450782   2.675676   4.110426   1.425163
    11  N    5.029770   5.597745   3.642685   5.237162   2.586817
    12  C    4.436049   3.971317   4.106384   2.674416   2.424897
    13  N    5.583831   5.047859   5.232040   3.642352   3.504263
    14  C    2.517432   3.674472   3.286888   5.309014   4.778168
    15  N    3.607292   4.826214   4.047461   6.425950   5.618639
    16  C    6.863026   5.939717   8.212556   6.277928   8.676420
    17  C    6.931179   5.894369   8.443852   6.298457   8.794435
    18  S    5.724571   4.884135   6.851198   5.081057   7.324279
    19  S    5.903735   4.726893   7.480146   5.106792   7.629118
    20  C    5.211914   4.055716   6.341886   3.823877   6.411051
    21  C    5.289228   3.980024   6.616955   3.837874   6.550680
    22  C    8.088080   7.250467   9.408668   7.624385   9.965832
    23  N    8.087531   7.080059   9.655134   7.542741  10.031235
    24  S    9.062655   8.166244  10.540009   8.631167  11.055837
    25  C    5.278259   4.175247   6.052603   3.413607   5.894019
    26  N    5.589753   4.601573   6.038198   3.503835   5.698266
    27  C    5.434013   4.017321   6.635687   3.440751   6.201772
    28  N    5.797552   4.387024   6.865873   3.535565   6.148555
    29  C    8.742042   8.029042   9.903625   8.360933  10.555831
    30  N    9.415657   8.798994  10.449273   9.100463  11.165741
                    6          7          8          9         10
     6  C    0.000000
     7  C    4.384939   0.000000
     8  N    3.909794   2.494036   0.000000
     9  S    5.076167   1.733444   1.664607   0.000000
    10  C    2.428007   5.116215   5.699860   6.371958   0.000000
    11  N    3.509330   6.107712   6.831389   7.434461   1.162408
    12  C    1.426163   5.736923   5.009263   6.301738   2.836178
    13  N    2.587713   6.864751   5.995430   7.349618   3.609722
    14  C    5.449573   1.416040   3.876636   2.767765   5.646781
    15  N    6.435818   2.578302   5.022796   3.797715   6.306769
    16  C    8.006980   6.799688   5.133320   5.598469  10.095206
    17  C    8.046957   6.792790   4.881066   5.352272  10.211271
    18  S    6.724728   5.888472   4.413965   5.062873   8.717358
    19  S    6.806098   5.863660   3.640877   4.373059   9.010232
    20  C    5.560183   5.658847   3.664254   4.828163   7.789869
    21  C    5.599966   5.646528   3.308153   4.550281   7.921315
    22  C    9.338351   7.930233   6.436082   6.730450  11.380861
    23  N    9.282699   7.828604   5.983401   6.285880  11.443981
    24  S   10.375810   8.769154   7.159503   7.342560  12.480402
    25  C    4.980160   6.024553   4.221331   5.558850   7.182928
    26  N    4.780422   6.521938   4.936954   6.319956   6.863267
    27  C    5.067076   5.999259   3.553259   5.045856   7.472396
    28  N    4.904680   6.483629   4.097117   5.656342   7.292433
    29  C   10.009162   8.610767   7.361303   7.601287  11.942933
    30  N   10.683723   9.302152   8.234617   8.433220  12.520091
                   11         12         13         14         15
    11  N    0.000000
    12  C    3.613393   0.000000
    13  N    4.122555   1.162293   0.000000
    14  C    6.480188   6.800997   7.931563   0.000000
    15  N    7.006418   7.769948   8.891861   1.162367   0.000000
    16  C   11.252094   8.869957   9.636359   7.815255   8.721478
    17  C   11.372275   8.835774   9.554265   7.865873   8.808022
    18  S    9.855270   7.646565   8.465706   6.933831   7.870558
    19  S   10.155316   7.513295   8.198493   7.070776   8.103469
    20  C    8.929125   6.282276   6.992905   6.926807   7.999694
    21  C    9.061987   6.219562   6.867319   6.979243   8.089048
    22  C   12.532854  10.214121  10.976246   8.830384   9.649369
    23  N   12.603042  10.043804  10.730876   8.824931   9.708053
    24  S   13.642351  11.200030  11.920038   9.654074  10.453904
    25  C    8.271714   5.557405   6.189708   7.298111   8.375775
    26  N    7.881345   5.201085   5.740126   7.759034   8.815172
    27  C    8.563381   5.402156   5.882615   7.400939   8.552565
    28  N    8.315623   4.950638   5.242967   7.895272   9.054645
    29  C   13.071955  10.920545  11.701256   9.410256  10.154595
    30  N   13.623644  11.613043  12.401601  10.018271  10.697984
                   16         17         18         19         20
    16  C    0.000000
    17  C    1.423315   0.000000
    18  S    1.757418   2.827694   0.000000
    19  S    2.825849   1.770477   3.428253   0.000000
    20  C    2.713774   3.063280   1.773167   2.795470   0.000000
    21  C    3.047557   2.727187   2.791121   1.772288   1.359281
    22  C    1.380327   2.291783   2.789903   3.992857   4.001979
    23  N    2.336642   1.310672   3.998700   2.658358   4.341342
    24  S    2.542129   2.439721   4.263822   4.137445   5.120151
    25  C    3.955208   4.450782   2.675676   4.110426   1.425163
    26  N    5.029770   5.597745   3.642685   5.237162   2.586817
    27  C    4.436049   3.971317   4.106384   2.674416   2.424897
    28  N    5.583831   5.047859   5.232040   3.642352   3.504263
    29  C    2.517432   3.674472   3.286888   5.309014   4.778168
    30  N    3.607292   4.826214   4.047461   6.425950   5.618639
                   21         22         23         24         25
    21  C    0.000000
    22  C    4.384939   0.000000
    23  N    3.909794   2.494036   0.000000
    24  S    5.076167   1.733444   1.664607   0.000000
    25  C    2.428007   5.116215   5.699860   6.371958   0.000000
    26  N    3.509330   6.107712   6.831389   7.434461   1.162408
    27  C    1.426163   5.736923   5.009263   6.301738   2.836178
    28  N    2.587713   6.864751   5.995430   7.349618   3.609722
    29  C    5.449573   1.416040   3.876636   2.767765   5.646781
    30  N    6.435818   2.578302   5.022796   3.797715   6.306769
                   26         27         28         29         30
    26  N    0.000000
    27  C    3.613393   0.000000
    28  N    4.122555   1.162293   0.000000
    29  C    6.480188   6.800997   7.931563   0.000000
    30  N    7.006418   7.769948   8.891861   1.162367   0.000000
 Symmetry turned off by external request.
 Rotational constants (GHZ):      0.2025891      0.0643053      0.0575350
  1404 basis functions,  2412 primitive gaussians,  1674 cartesian basis functions
    62 alpha electrons       62 beta electrons
       nuclear repulsion energy      1166.1400396458 Hartrees.
 IMHF & INEx in M05                  599485                  400514
 NAtoms=   30 NActive=   30 NUniq=   30 SFac= 1.00D+00 NAtFMM=   60 NAOKFM=F Big=F
 ExpMin= 3.51D-02 ExpMax= 3.74D+05 ExpMxC= 1.18D+03 IAcc=3 IRadAn=         5 AccDes= 0.00D+00
 Harris functional with IExCor= 1009 and IRadAn=       5 diagonalized for initial guess.
 HarFok:  IExCor= 1009 AccDes= 0.00D+00 IRadAn=         5 IDoV= 1 UseB2=F ITyADJ=14
 ICtDFT=  3500011 ScaDFX=  1.000000  1.000000  1.000000  1.000000
 FoFCou: FMM=F IPFlag=           0 FMFlag=      100000 FMFlg1=           0
         NFxFlg=           0 DoJE=T BraDBF=F KetDBF=T FulRan=T
         wScrn=  0.000000 ICntrl=     500 IOpCl=  0 I1Cent=   200000004 NGrid=           0
         NMat0=    1 NMatS0=      1 NMatT0=    0 NMatD0=    1 NMtDS0=    0 NMtDT0=    0
 Symmetry not used in FoFCou.
 Restarting incremental Fock formation.
 SCF Done:  E(RM05) =  -1724.32308646     A.U. after   21 cycles
            NFock= 21  Conv=0.60D-08     -V/T= 2.0046

 **********************************************************************

            Population analysis using the SCF density.

 **********************************************************************

 Alpha  occ. eigenvalues --  -90.54370 -90.51737 -90.51292 -15.06117 -15.02512
 Alpha  occ. eigenvalues --  -15.02044 -15.02008 -10.88015 -10.87892 -10.87738
 Alpha  occ. eigenvalues --  -10.86840 -10.85568 -10.82423 -10.81799 -10.81778
 Alpha  occ. eigenvalues --   -8.56745  -8.54393  -8.53978  -6.39448  -6.39114
 Alpha  occ. eigenvalues --   -6.38905  -6.37122  -6.36834  -6.36698  -6.36463
 Alpha  occ. eigenvalues --   -6.36414  -6.36044  -1.19970  -1.12383  -1.11610
 Alpha  occ. eigenvalues --   -1.10794  -1.07163  -1.03344  -0.98363  -0.96966
 Alpha  occ. eigenvalues --   -0.87609  -0.84201  -0.81898  -0.73436  -0.71001
 Alpha  occ. eigenvalues --   -0.67593  -0.64379  -0.59526  -0.57004  -0.55371
 Alpha  occ. eigenvalues --   -0.53285  -0.52513  -0.52091  -0.51745  -0.50776
 Alpha  occ. eigenvalues --   -0.50313  -0.49272  -0.48148  -0.46662  -0.45983
 Alpha  occ. eigenvalues --   -0.45834  -0.45231  -0.43609  -0.43075  -0.39439
 Alpha  occ. eigenvalues --   -0.37621  -0.33064
 Alpha virt. eigenvalues --   -0.09381  -0.08311  -0.02110  -0.01362  -0.01005
 Alpha virt. eigenvalues --   -0.00426  -0.00024   0.00851   0.01293   0.01783
 Alpha virt. eigenvalues --    0.01948   0.02429   0.02686   0.02795   0.03217
 Alpha virt. eigenvalues --    0.03379   0.03774   0.04029   0.04485   0.04698
 Alpha virt. eigenvalues --    0.05082   0.05312   0.05781   0.06000   0.06237
 Alpha virt. eigenvalues --    0.06526   0.06728   0.06794   0.07011   0.07160
 Alpha virt. eigenvalues --    0.07431   0.07609   0.08124   0.08215   0.08446
 Alpha virt. eigenvalues --    0.08740   0.09045   0.09067   0.09502   0.09871
 Alpha virt. eigenvalues --    0.09939   0.10149   0.10340   0.10560   0.10866
 Alpha virt. eigenvalues --    0.11117   0.11216   0.11466   0.11653   0.11810
 Alpha virt. eigenvalues --    0.12076   0.12138   0.12312   0.12452   0.12771
 Alpha virt. eigenvalues --    0.12901   0.13139   0.13392   0.13737   0.13926
 Alpha virt. eigenvalues --    0.14053   0.14240   0.14487   0.14652   0.14919
 Alpha virt. eigenvalues --    0.15069   0.15293   0.15368   0.15601   0.15748
 Alpha virt. eigenvalues --    0.16011   0.16301   0.16529   0.16674   0.16994
 Alpha virt. eigenvalues --    0.17164   0.17270   0.17575   0.17844   0.17972
 Alpha virt. eigenvalues --    0.18124   0.18194   0.18484   0.18654   0.18815
 Alpha virt. eigenvalues --    0.18999   0.19348   0.19485   0.19646   0.19848
 Alpha virt. eigenvalues --    0.19940   0.20257   0.20433   0.20556   0.20653
 Alpha virt. eigenvalues --    0.20908   0.21053   0.21227   0.21461   0.21657
 Alpha virt. eigenvalues --    0.21791   0.21924   0.22134   0.22426   0.22595
 Alpha virt. eigenvalues --    0.22620   0.22986   0.23191   0.23424   0.23809
 Alpha virt. eigenvalues --    0.23982   0.24151   0.24292   0.24368   0.24593
 Alpha virt. eigenvalues --    0.24894   0.25017   0.25208   0.25476   0.25730
 Alpha virt. eigenvalues --    0.26064   0.26189   0.26441   0.26728   0.27109
 Alpha virt. eigenvalues --    0.27203   0.27370   0.27601   0.28102   0.28238
 Alpha virt. eigenvalues --    0.28381   0.28587   0.28896   0.29285   0.29585
 Alpha virt. eigenvalues --    0.29993   0.30331   0.30636   0.30929   0.31067
 Alpha virt. eigenvalues --    0.31340   0.31640   0.31837   0.32174   0.32476
 Alpha virt. eigenvalues --    0.32654   0.32906   0.32914   0.33388   0.33720
 Alpha virt. eigenvalues --    0.33885   0.34389   0.34544   0.34731   0.35057
 Alpha virt. eigenvalues --    0.35206   0.35679   0.35866   0.36058   0.36303
 Alpha virt. eigenvalues --    0.36708   0.36797   0.37038   0.37318   0.37347
 Alpha virt. eigenvalues --    0.37684   0.37940   0.38208   0.38278   0.38655
 Alpha virt. eigenvalues --    0.38861   0.39050   0.39474   0.39565   0.39791
 Alpha virt. eigenvalues --    0.40285   0.40341   0.40547   0.40701   0.40943
 Alpha virt. eigenvalues --    0.41075   0.41137   0.41588   0.41737   0.42207
 Alpha virt. eigenvalues --    0.42479   0.42654   0.42691   0.43104   0.43511
 Alpha virt. eigenvalues --    0.43596   0.44191   0.44373   0.44546   0.44742
 Alpha virt. eigenvalues --    0.45003   0.45349   0.45473   0.45801   0.46037
 Alpha virt. eigenvalues --    0.46200   0.46690   0.47207   0.47414   0.47519
 Alpha virt. eigenvalues --    0.47709   0.47932   0.48168   0.48335   0.48532
 Alpha virt. eigenvalues --    0.48643   0.48898   0.49077   0.49434   0.49594
 Alpha virt. eigenvalues --    0.49962   0.50188   0.50271   0.50492   0.50767
 Alpha virt. eigenvalues --    0.51336   0.51419   0.51793   0.51835   0.52210
 Alpha virt. eigenvalues --    0.52611   0.52802   0.53211   0.53602   0.54023
 Alpha virt. eigenvalues --    0.54136   0.54492   0.54801   0.55003   0.55286
 Alpha virt. eigenvalues --    0.55484   0.55586   0.56176   0.56373   0.56750
 Alpha virt. eigenvalues --    0.56905   0.57111   0.57472   0.57663   0.57970
 Alpha virt. eigenvalues --    0.58080   0.58489   0.58544   0.58794   0.59154
 Alpha virt. eigenvalues --    0.59456   0.59698   0.59922   0.60661   0.60948
 Alpha virt. eigenvalues --    0.60989   0.61245   0.61550   0.61737   0.61960
 Alpha virt. eigenvalues --    0.62399   0.63120   0.63276   0.63498   0.63702
 Alpha virt. eigenvalues --    0.63820   0.64152   0.64485   0.64700   0.65022
 Alpha virt. eigenvalues --    0.65205   0.65264   0.65540   0.65898   0.66123
 Alpha virt. eigenvalues --    0.66432   0.66689   0.67193   0.67236   0.67531
 Alpha virt. eigenvalues --    0.67802   0.68062   0.68254   0.68558   0.68959
 Alpha virt. eigenvalues --    0.69426   0.69677   0.69877   0.70078   0.70157
 Alpha virt. eigenvalues --    0.70399   0.70586   0.70911   0.71106   0.71497
 Alpha virt. eigenvalues --    0.71827   0.71949   0.72095   0.72603   0.72788
 Alpha virt. eigenvalues --    0.73154   0.73419   0.73896   0.74000   0.74413
 Alpha virt. eigenvalues --    0.74510   0.74833   0.74914   0.75040   0.75486
 Alpha virt. eigenvalues --    0.75663   0.76077   0.76122   0.76495   0.76737
 Alpha virt. eigenvalues --    0.76990   0.77057   0.77296   0.78040   0.78241
 Alpha virt. eigenvalues --    0.78403   0.78690   0.78866   0.79075   0.79124
 Alpha virt. eigenvalues --    0.79646   0.79782   0.80302   0.80559   0.80853
 Alpha virt. eigenvalues --    0.81148   0.81240   0.81337   0.81474   0.81819
 Alpha virt. eigenvalues --    0.82243   0.82552   0.82714   0.83195   0.83478
 Alpha virt. eigenvalues --    0.83765   0.84280   0.84408   0.84654   0.85128
 Alpha virt. eigenvalues --    0.85315   0.85560   0.85971   0.86373   0.86489
 Alpha virt. eigenvalues --    0.86999   0.87385   0.87629   0.87730   0.88235
 Alpha virt. eigenvalues --    0.88384   0.88695   0.89052   0.89437   0.89719
 Alpha virt. eigenvalues --    0.89814   0.89957   0.90405   0.90884   0.91033
 Alpha virt. eigenvalues --    0.91225   0.91424   0.91607   0.91874   0.92462
 Alpha virt. eigenvalues --    0.92550   0.92776   0.93326   0.93970   0.94175
 Alpha virt. eigenvalues --    0.94321   0.94671   0.95232   0.95903   0.96150
 Alpha virt. eigenvalues --    0.96190   0.96518   0.97176   0.97239   0.97703
 Alpha virt. eigenvalues --    0.97770   0.98022   0.98255   0.98488   0.98970
 Alpha virt. eigenvalues --    0.99387   0.99521   1.00054   1.00204   1.00669
 Alpha virt. eigenvalues --    1.00872   1.01061   1.01641   1.01660   1.01806
 Alpha virt. eigenvalues --    1.02332   1.02805   1.02937   1.03608   1.03971
 Alpha virt. eigenvalues --    1.04195   1.04340   1.04910   1.05017   1.05436
 Alpha virt. eigenvalues --    1.05646   1.06164   1.06449   1.06716   1.07164
 Alpha virt. eigenvalues --    1.07819   1.07905   1.08584   1.08867   1.09216
 Alpha virt. eigenvalues --    1.09490   1.09590   1.09717   1.10235   1.10532
 Alpha virt. eigenvalues --    1.10819   1.11095   1.11792   1.12438   1.12716
 Alpha virt. eigenvalues --    1.12834   1.13001   1.13368   1.13965   1.14240
 Alpha virt. eigenvalues --    1.14948   1.15470   1.15700   1.16014   1.16258
 Alpha virt. eigenvalues --    1.16580   1.16832   1.17082   1.17526   1.17745
 Alpha virt. eigenvalues --    1.17914   1.18567   1.19014   1.19287   1.19612
 Alpha virt. eigenvalues --    1.19670   1.20250   1.20713   1.21105   1.21539
 Alpha virt. eigenvalues --    1.21639   1.21798   1.22211   1.22513   1.22971
 Alpha virt. eigenvalues --    1.23233   1.23682   1.23784   1.24035   1.24523
 Alpha virt. eigenvalues --    1.25135   1.25373   1.25670   1.25865   1.26174
 Alpha virt. eigenvalues --    1.26482   1.26732   1.27280   1.27457   1.28382
 Alpha virt. eigenvalues --    1.28668   1.28888   1.29201   1.29903   1.30176
 Alpha virt. eigenvalues --    1.30671   1.30910   1.31210   1.31577   1.31980
 Alpha virt. eigenvalues --    1.32297   1.32503   1.32656   1.32969   1.33436
 Alpha virt. eigenvalues --    1.33673   1.33927   1.34060   1.34695   1.34815
 Alpha virt. eigenvalues --    1.34971   1.35202   1.35387   1.35924   1.36749
 Alpha virt. eigenvalues --    1.37036   1.37329   1.37613   1.37996   1.38311
 Alpha virt. eigenvalues --    1.38461   1.38853   1.39375   1.39516   1.40263
 Alpha virt. eigenvalues --    1.40635   1.40769   1.40979   1.41485   1.41827
 Alpha virt. eigenvalues --    1.42275   1.42581   1.42664   1.43060   1.43542
 Alpha virt. eigenvalues --    1.43738   1.44410   1.44658   1.44982   1.45520
 Alpha virt. eigenvalues --    1.45773   1.46347   1.46778   1.46903   1.47538
 Alpha virt. eigenvalues --    1.47825   1.47928   1.48781   1.48897   1.49476
 Alpha virt. eigenvalues --    1.49820   1.50260   1.50515   1.50780   1.51320
 Alpha virt. eigenvalues --    1.51419   1.51960   1.52098   1.52236   1.53323
 Alpha virt. eigenvalues --    1.53708   1.53921   1.54247   1.54758   1.55090
 Alpha virt. eigenvalues --    1.55315   1.55754   1.56253   1.56569   1.57191
 Alpha virt. eigenvalues --    1.57438   1.57504   1.57803   1.58142   1.58330
 Alpha virt. eigenvalues --    1.59224   1.59326   1.59811   1.59914   1.60219
 Alpha virt. eigenvalues --    1.60601   1.60762   1.61080   1.62033   1.62081
 Alpha virt. eigenvalues --    1.62401   1.62690   1.63006   1.63396   1.63669
 Alpha virt. eigenvalues --    1.63845   1.64249   1.64469   1.64989   1.65557
 Alpha virt. eigenvalues --    1.65779   1.66146   1.66696   1.66865   1.67488
 Alpha virt. eigenvalues --    1.67668   1.68075   1.68251   1.68661   1.69070
 Alpha virt. eigenvalues --    1.69679   1.69864   1.70147   1.70917   1.71689
 Alpha virt. eigenvalues --    1.72070   1.72508   1.73088   1.73261   1.73578
 Alpha virt. eigenvalues --    1.73864   1.74385   1.74925   1.75051   1.75570
 Alpha virt. eigenvalues --    1.75904   1.76232   1.76433   1.76966   1.77534
 Alpha virt. eigenvalues --    1.77891   1.78286   1.78711   1.78877   1.79223
 Alpha virt. eigenvalues --    1.79606   1.79995   1.80437   1.80652   1.81274
 Alpha virt. eigenvalues --    1.81727   1.82247   1.82475   1.82798   1.83248
 Alpha virt. eigenvalues --    1.84072   1.84356   1.84540   1.84945   1.85438
 Alpha virt. eigenvalues --    1.85777   1.85804   1.86617   1.86732   1.87091
 Alpha virt. eigenvalues --    1.87407   1.87724   1.87973   1.88502   1.88766
 Alpha virt. eigenvalues --    1.88951   1.89262   1.89539   1.90007   1.90220
 Alpha virt. eigenvalues --    1.90879   1.91101   1.91429   1.92005   1.92365
 Alpha virt. eigenvalues --    1.92716   1.92945   1.93377   1.93765   1.93936
 Alpha virt. eigenvalues --    1.94426   1.95117   1.95209   1.95502   1.96010
 Alpha virt. eigenvalues --    1.96440   1.97113   1.97249   1.97875   1.98299
 Alpha virt. eigenvalues --    1.98454   1.98706   1.98887   1.99437   1.99578
 Alpha virt. eigenvalues --    1.99954   2.00218   2.00437   2.00985   2.01125
 Alpha virt. eigenvalues --    2.02173   2.02209   2.02658   2.02750   2.03183
 Alpha virt. eigenvalues --    2.04062   2.04357   2.04954   2.05231   2.05632
 Alpha virt. eigenvalues --    2.06184   2.06298   2.06824   2.07238   2.07774
 Alpha virt. eigenvalues --    2.08226   2.08361   2.09151   2.09499   2.09572
 Alpha virt. eigenvalues --    2.10382   2.10751   2.11086   2.11382   2.12049
 Alpha virt. eigenvalues --    2.12513   2.13089   2.13742   2.14527   2.14959
 Alpha virt. eigenvalues --    2.15128   2.15450   2.16374   2.16908   2.17297
 Alpha virt. eigenvalues --    2.17612   2.18052   2.18420   2.18688   2.19025
 Alpha virt. eigenvalues --    2.19465   2.20395   2.20589   2.21613   2.22651
 Alpha virt. eigenvalues --    2.23024   2.23632   2.23839   2.24346   2.24688
 Alpha virt. eigenvalues --    2.25197   2.26181   2.26455   2.27246   2.27459
 Alpha virt. eigenvalues --    2.27655   2.28417   2.28802   2.29072   2.29167
 Alpha virt. eigenvalues --    2.29874   2.30115   2.30347   2.30912   2.31238
 Alpha virt. eigenvalues --    2.31454   2.32734   2.32937   2.33067   2.33993
 Alpha virt. eigenvalues --    2.34810   2.35098   2.35457   2.35684   2.36407
 Alpha virt. eigenvalues --    2.36714   2.37526   2.38452   2.38969   2.40163
 Alpha virt. eigenvalues --    2.40307   2.40346   2.41091   2.41665   2.42309
 Alpha virt. eigenvalues --    2.42615   2.42869   2.44013   2.44484   2.45415
 Alpha virt. eigenvalues --    2.45738   2.46558   2.46671   2.47406   2.48096
 Alpha virt. eigenvalues --    2.48201   2.48871   2.50346   2.50979   2.51295
 Alpha virt. eigenvalues --    2.51863   2.52637   2.53567   2.54341   2.54688
 Alpha virt. eigenvalues --    2.54869   2.56150   2.57697   2.57759   2.58184
 Alpha virt. eigenvalues --    2.58524   2.59356   2.60265   2.60743   2.60864
 Alpha virt. eigenvalues --    2.62404   2.62867   2.62966   2.63837   2.64207
 Alpha virt. eigenvalues --    2.64797   2.64901   2.65650   2.66624   2.66834
 Alpha virt. eigenvalues --    2.68520   2.69424   2.69918   2.70625   2.71180
 Alpha virt. eigenvalues --    2.71497   2.72799   2.74122   2.74651   2.75025
 Alpha virt. eigenvalues --    2.75389   2.75797   2.76314   2.76911   2.77429
 Alpha virt. eigenvalues --    2.78123   2.78544   2.79065   2.79765   2.80297
 Alpha virt. eigenvalues --    2.80590   2.81037   2.81484   2.82541   2.83200
 Alpha virt. eigenvalues --    2.84483   2.85385   2.86360   2.87038   2.87965
 Alpha virt. eigenvalues --    2.88641   2.89835   2.89890   2.90694   2.91422
 Alpha virt. eigenvalues --    2.92138   2.93707   2.94703   2.96833   2.97563
 Alpha virt. eigenvalues --    2.98424   2.99752   3.00049   3.00110   3.00931
 Alpha virt. eigenvalues --    3.02032   3.02638   3.03505   3.04784   3.05108
 Alpha virt. eigenvalues --    3.05995   3.06887   3.08755   3.09181   3.09588
 Alpha virt. eigenvalues --    3.11073   3.11845   3.12932   3.13439   3.14023
 Alpha virt. eigenvalues --    3.14495   3.15825   3.16696   3.16960   3.17784
 Alpha virt. eigenvalues --    3.18724   3.19035   3.19524   3.20601   3.20834
 Alpha virt. eigenvalues --    3.21464   3.22108   3.22527   3.22988   3.23770
 Alpha virt. eigenvalues --    3.24310   3.24600   3.25832   3.26379   3.26960
 Alpha virt. eigenvalues --    3.27323   3.27545   3.27856   3.28991   3.29304
 Alpha virt. eigenvalues --    3.30003   3.30689   3.31612   3.32086   3.33098
 Alpha virt. eigenvalues --    3.33240   3.33709   3.34339   3.34752   3.35226
 Alpha virt. eigenvalues --    3.35884   3.36556   3.36685   3.37423   3.38238
 Alpha virt. eigenvalues --    3.39377   3.40150   3.40930   3.41220   3.42456
 Alpha virt. eigenvalues --    3.42739   3.43461   3.43941   3.44490   3.44835
 Alpha virt. eigenvalues --    3.45463   3.45906   3.46308   3.47329   3.48003
 Alpha virt. eigenvalues --    3.48703   3.49404   3.50803   3.51323   3.52551
 Alpha virt. eigenvalues --    3.53500   3.54115   3.55045   3.55917   3.56487
 Alpha virt. eigenvalues --    3.56941   3.58090   3.58776   3.59000   3.59645
 Alpha virt. eigenvalues --    3.60881   3.61364   3.62027   3.63093   3.64054
 Alpha virt. eigenvalues --    3.64916   3.65269   3.65987   3.66215   3.67078
 Alpha virt. eigenvalues --    3.67632   3.68015   3.68407   3.69698   3.69974
 Alpha virt. eigenvalues --    3.71946   3.72515   3.73214   3.74337   3.75543
 Alpha virt. eigenvalues --    3.75937   3.76376   3.77012   3.77264   3.79246
 Alpha virt. eigenvalues --    3.79475   3.79968   3.80268   3.80811   3.81099
 Alpha virt. eigenvalues --    3.81739   3.82366   3.83373   3.83524   3.84372
 Alpha virt. eigenvalues --    3.85008   3.85712   3.86231   3.87029   3.87514
 Alpha virt. eigenvalues --    3.87990   3.88803   3.89522   3.90089   3.90912
 Alpha virt. eigenvalues --    3.91614   3.92099   3.92479   3.93331   3.95115
 Alpha virt. eigenvalues --    3.95252   3.95851   3.96505   3.96976   3.98966
 Alpha virt. eigenvalues --    3.99461   4.00014   4.01280   4.01599   4.02099
 Alpha virt. eigenvalues --    4.02852   4.03306   4.03926   4.05093   4.05449
 Alpha virt. eigenvalues --    4.05950   4.06663   4.06976   4.08609   4.09033
 Alpha virt. eigenvalues --    4.10352   4.10994   4.12220   4.13570   4.14477
 Alpha virt. eigenvalues --    4.14665   4.14900   4.15444   4.16103   4.16992
 Alpha virt. eigenvalues --    4.17758   4.18714   4.18944   4.19383   4.19862
 Alpha virt. eigenvalues --    4.20151   4.20392   4.21126   4.21786   4.22902
 Alpha virt. eigenvalues --    4.23138   4.23851   4.24243   4.25290   4.25929
 Alpha virt. eigenvalues --    4.26296   4.27020   4.28207   4.28782   4.29185
 Alpha virt. eigenvalues --    4.29880   4.31073   4.31844   4.32341   4.33007
 Alpha virt. eigenvalues --    4.33567   4.34697   4.36215   4.36976   4.37598
 Alpha virt. eigenvalues --    4.39817   4.40450   4.41461   4.42192   4.42615
 Alpha virt. eigenvalues --    4.44171   4.44426   4.46040   4.46588   4.48090
 Alpha virt. eigenvalues --    4.48937   4.50052   4.52390   4.52902   4.53393
 Alpha virt. eigenvalues --    4.54493   4.55082   4.55966   4.58139   4.60115
 Alpha virt. eigenvalues --    4.61074   4.61475   4.62354   4.63390   4.64470
 Alpha virt. eigenvalues --    4.64708   4.64942   4.65999   4.67383   4.67535
 Alpha virt. eigenvalues --    4.68827   4.69667   4.70543   4.70817   4.71458
 Alpha virt. eigenvalues --    4.72680   4.74112   4.74349   4.75765   4.77018
 Alpha virt. eigenvalues --    4.77353   4.77579   4.77841   4.78947   4.80263
 Alpha virt. eigenvalues --    4.81671   4.82584   4.83292   4.83811   4.84059
 Alpha virt. eigenvalues --    4.84167   4.84865   4.87382   4.87984   4.88628
 Alpha virt. eigenvalues --    4.89363   4.91350   4.91795   4.94207   4.96259
 Alpha virt. eigenvalues --    4.97525   4.98919   4.99425   5.00279   5.00769
 Alpha virt. eigenvalues --    5.01620   5.02988   5.04207   5.04754   5.05134
 Alpha virt. eigenvalues --    5.05565   5.05803   5.06906   5.07686   5.07986
 Alpha virt. eigenvalues --    5.09536   5.10125   5.11112   5.11727   5.13463
 Alpha virt. eigenvalues --    5.15650   5.16037   5.16612   5.17330   5.18329
 Alpha virt. eigenvalues --    5.19141   5.20055   5.20643   5.22316   5.23220
 Alpha virt. eigenvalues --    5.24684   5.25163   5.26745   5.28162   5.28396
 Alpha virt. eigenvalues --    5.29203   5.29322   5.29589   5.31201   5.31639
 Alpha virt. eigenvalues --    5.32513   5.33045   5.33966   5.34168   5.36534
 Alpha virt. eigenvalues --    5.38468   5.38912   5.40063   5.40588   5.41516
 Alpha virt. eigenvalues --    5.43168   5.44326   5.45849   5.46419   5.49702
 Alpha virt. eigenvalues --    5.51253   5.52984   5.54041   5.55501   5.56037
 Alpha virt. eigenvalues --    5.57566   5.58276   5.59500   5.62325   5.65295
 Alpha virt. eigenvalues --    5.69183   5.69512   5.69812   5.70579   5.71552
 Alpha virt. eigenvalues --    5.71857   5.72405   5.73383   5.73565   5.75505
 Alpha virt. eigenvalues --    5.77065   5.78602   5.83332   5.84669   5.85266
 Alpha virt. eigenvalues --    5.93232   5.95126   5.96838   5.97669   5.98751
 Alpha virt. eigenvalues --    6.01727   6.02151   6.03237   6.04590   6.06474
 Alpha virt. eigenvalues --    6.07023   6.08325   6.10571   6.14015   6.14899
 Alpha virt. eigenvalues --    6.15419   6.17024   6.18014   6.18859   6.19721
 Alpha virt. eigenvalues --    6.21003   6.22777   6.23541   6.24998   6.26761
 Alpha virt. eigenvalues --    6.28041   6.29629   6.32542   6.35162   6.40362
 Alpha virt. eigenvalues --    6.41689   6.44301   6.51846   6.52184   6.55091
 Alpha virt. eigenvalues --    6.55547   6.58813   6.60301   6.60839   6.64580
 Alpha virt. eigenvalues --    6.65673   6.66168   6.67767   6.69202   6.71087
 Alpha virt. eigenvalues --    6.72976   6.79935   6.81352   6.85450   6.93853
 Alpha virt. eigenvalues --    6.96184   7.05496   7.10836   7.14302   7.16699
 Alpha virt. eigenvalues --    7.19874   7.30080   7.32982   7.35047   7.36546
 Alpha virt. eigenvalues --    7.37260   7.38119   7.40449   7.40897   7.43377
 Alpha virt. eigenvalues --    7.43972   7.45922   7.47551   7.50201   7.56837
 Alpha virt. eigenvalues --    7.57385   7.61323   7.62493   7.68728   7.73764
 Alpha virt. eigenvalues --    7.77893   7.94428   7.97000   7.99362   8.01748
 Alpha virt. eigenvalues --    8.09450   8.13107   8.18682   8.20247   8.22987
 Alpha virt. eigenvalues --    8.25635   8.29711   8.35217   8.39877   8.41236
 Alpha virt. eigenvalues --    8.49314   8.65814   8.74123   8.85855   9.18983
 Alpha virt. eigenvalues --    9.31669   9.41388   9.50289   9.55256   9.74502
 Alpha virt. eigenvalues --    9.91329   9.96268  10.01005  10.08664  10.10020
 Alpha virt. eigenvalues --   10.15616  10.16831  10.30221  10.40233  10.43780
 Alpha virt. eigenvalues --   10.59268  10.90537  11.06815  11.45123  11.69745
 Alpha virt. eigenvalues --   11.78875  11.81141  11.88923  13.32359  13.43266
 Alpha virt. eigenvalues --   13.47673  13.55922  14.45750  14.86582  15.46806
 Alpha virt. eigenvalues --   15.79530  16.03290  16.51455  16.62546  16.90714
 Alpha virt. eigenvalues --   17.61186  17.93836  18.09534  19.39332  19.52190
 Alpha virt. eigenvalues --   19.67421  24.41511  24.60892  24.83363  25.38528
 Alpha virt. eigenvalues --   25.69220  25.88191  26.03362  26.17953  26.24046
 Alpha virt. eigenvalues --   45.14317  48.31464  49.63736  50.40185  51.64949
 Alpha virt. eigenvalues --   51.95594  53.03793  54.76325  58.91408  63.21199
 Alpha virt. eigenvalues --   63.63804  64.17497 141.68248 141.75035 141.81290
          Condensed to atoms (all electrons):
 Mulliken charges:
               1
     1  C    0.001891
     2  C    0.028071
     3  S   -0.000129
     4  S   -0.093193
     5  C   -0.005667
     6  C    0.006010
     7  C    0.002173
     8  N    0.009639
     9  S   -0.008819
    10  C    0.000432
    11  N   -0.000004
    12  C    0.009353
    13  N   -0.000998
    14  C   -0.000876
    15  N    0.000003
    16  C    0.504697
    17  C    0.085281
    18  S   -0.453202
    19  S   -0.090502
    20  C    0.647718
    21  C    0.182892
    22  C    0.606520
    23  N   -0.636616
    24  S    0.111611
    25  C    0.429573
    26  N   -0.775156
    27  C    0.619722
    28  N   -0.798149
    29  C    0.317987
    30  N   -0.700259
 Sum of Mulliken charges =  -0.00000
 Mulliken charges with hydrogens summed into heavy atoms:
               1
     1  C    0.001891
     2  C    0.028071
     3  S   -0.000129
     4  S   -0.093193
     5  C   -0.005667
     6  C    0.006010
     7  C    0.002173
     8  N    0.009639
     9  S   -0.008819
    10  C    0.000432
    11  N   -0.000004
    12  C    0.009353
    13  N   -0.000998
    14  C   -0.000876
    15  N    0.000003
    16  C    0.504697
    17  C    0.085281
    18  S   -0.453202
    19  S   -0.090502
    20  C    0.647718
    21  C    0.182892
    22  C    0.606520
    23  N   -0.636616
    24  S    0.111611
    25  C    0.429573
    26  N   -0.775156
    27  C    0.619722
    28  N   -0.798149
    29  C    0.317987
    30  N   -0.700259
 Electronic spatial extent (au):  <R**2>=          23174.9380
 Charge=             -0.0000 electrons
 Dipole moment (field-independent basis, Debye):
    X=             -1.1202    Y=             -4.0609    Z=              2.1756  Tot=              4.7412

 Test job not archived.
 1\1\GINC-CHIMERA-NODE14\SP\RM05\Gen\C16N8S6\CONNORNM\18-Dec-2018\0\\#T
  M05/Gen test Massage Symmetry=None SCF=(fermi,maxcyc=120)\\M05 opt\\0
 ,1\C,0,0.30559928,-0.9188628,0.32157291\C,0,-0.35873188,-0.15449231,1.
 32168716\S,0,1.2666099,-0.25224837,-0.99014369\S,0,-0.35013004,1.61473
 812,1.38755086\C,0,0.40206281,1.26803607,-1.2824032\C,0,-0.23696938,2.
 00677231,-0.33712509\C,0,0.13980897,-2.26469523,0.5795494\N,0,-0.98504
 942,-0.81243486,2.26651411\S,0,-0.78831911,-2.44865288,2.03198336\C,0,
 0.46992677,1.69828382,-2.63937446\N,0,0.57312073,2.01982338,-3.7516497
 6\C,0,-0.86368316,3.24374898,-0.67038249\N,0,-1.36202085,4.27043183,-0
 .89062783\C,0,0.64114029,-3.36841277,-0.15232692\N,0,1.05222902,-4.286
 00061,-0.73553746\C,0,0.50370994,-0.65857279,7.17679915\C,0,-0.9026915
 7,-0.87523444,7.14648106\S,0,1.45531605,-0.0007507,5.85383561\S,0,-1.9
 3780768,-0.48213489,5.76496171\C,0,0.27417634,1.10296496,5.125246\C,0,
 -1.07068568,0.90859618,5.0904472\C,0,1.01705768,-1.1097958,8.37603854\
 N,0,-1.44985406,-1.43142268,8.19963246\S,0,-0.27235761,-1.77403632,9.3
 2525891\C,0,0.87540936,2.24008914,4.5116035\N,0,1.41304633,3.13741731,
 4.00470937\C,0,-1.93113638,1.83834734,4.43536759\N,0,-2.66628191,2.553
 44619,3.8884482\C,0,2.36290034,-1.09816885,8.8161985\N,0,3.46353126,-1
 .10511911,9.18990855\\Version=AS64L-G09RevD.01\HF=-1724.3230865\RMSD=6
 .045e-09\Dipole=-0.4407323,-1.5976694,0.8559358\Quadrupole=-12.0300529
 ,-6.4470624,18.4771153,2.4018103,-11.8460378,-11.1677787\PG=Unknown\\@


 ... FOR AFTERWARDS A MAN FINDS PLEASURE IN HIS PAINS,
 WHEN HE HAS SUFFERED LONG AND WANDERED FAR.

                                    -- HOMER
 Job cpu time:       4 days 18 hours 33 minutes 54.2 seconds.
 File lengths (MBytes):  RWF=    861 Int=      0 D2E=      0 Chk=     69 Scr=      1
 Normal termination of Gaussian 09 at Tue Dec 18 18:59:16 2018.
