 Entering Gaussian System, Link 0=/data/szalewicgrp/connornm/opt/Gaussian/g09-M05-par/g09/g09
 AtFile(1): aug-cc-pVTZ.gbs
 Initial command:
 /data/szalewicgrp/connornm/opt/Gaussian/g09-M05-par/g09/l1.exe "/scratch/local/Gau-23940.inp" -scrdir="/scratch/local/"
 Entering Link 1 = /data/szalewicgrp/connornm/opt/Gaussian/g09-M05-par/g09/l1.exe PID=     23941.
  
 Copyright (c) 1988,1990,1992,1993,1995,1998,2003,2009,2013,
            Gaussian, Inc.  All Rights Reserved.
  
 This is part of the Gaussian(R) 09 program.  It is based on
 the Gaussian(R) 03 system (copyright 2003, Gaussian, Inc.),
 the Gaussian(R) 98 system (copyright 1998, Gaussian, Inc.),
 the Gaussian(R) 94 system (copyright 1995, Gaussian, Inc.),
 the Gaussian 92(TM) system (copyright 1992, Gaussian, Inc.),
 the Gaussian 90(TM) system (copyright 1990, Gaussian, Inc.),
 the Gaussian 88(TM) system (copyright 1988, Gaussian, Inc.),
 the Gaussian 86(TM) system (copyright 1986, Carnegie Mellon
 University), and the Gaussian 82(TM) system (copyright 1983,
 Carnegie Mellon University). Gaussian is a federally registered
 trademark of Gaussian, Inc.
  
 This software contains proprietary and confidential information,
 including trade secrets, belonging to Gaussian, Inc.
  
 This software is provided under written license and may be
 used, copied, transmitted, or stored only in accord with that
 written license.
  
 The following legend is applicable only to US Government
 contracts under FAR:
  
                    RESTRICTED RIGHTS LEGEND
  
 Use, reproduction and disclosure by the US Government is
 subject to restrictions as set forth in subparagraphs (a)
 and (c) of the Commercial Computer Software - Restricted
 Rights clause in FAR 52.227-19.
  
 Gaussian, Inc.
 340 Quinnipiac St., Bldg. 40, Wallingford CT 06492
  
  
 ---------------------------------------------------------------
 Warning -- This program may not be used in any manner that
 competes with the business of Gaussian, Inc. or will provide
 assistance to any competitor of Gaussian, Inc.  The licensee
 of this program is prohibited from giving any competitor of
 Gaussian, Inc. access to this program.  By using this program,
 the user acknowledges that Gaussian, Inc. is engaged in the
 business of creating and licensing software in the field of
 computational chemistry and represents and warrants to the
 licensee that it is not a competitor of Gaussian, Inc. and that
 it will not use this program in any manner prohibited above.
 ---------------------------------------------------------------
  

 Cite this work as:
 Gaussian 09, Revision D.01,
 M. J. Frisch, G. W. Trucks, H. B. Schlegel, G. E. Scuseria, 
 M. A. Robb, J. R. Cheeseman, G. Scalmani, V. Barone, B. Mennucci, 
 G. A. Petersson, H. Nakatsuji, M. Caricato, X. Li, H. P. Hratchian, 
 A. F. Izmaylov, J. Bloino, G. Zheng, J. L. Sonnenberg, M. Hada, 
 M. Ehara, K. Toyota, R. Fukuda, J. Hasegawa, M. Ishida, T. Nakajima, 
 Y. Honda, O. Kitao, H. Nakai, T. Vreven, J. A. Montgomery, Jr., 
 J. E. Peralta, F. Ogliaro, M. Bearpark, J. J. Heyd, E. Brothers, 
 K. N. Kudin, V. N. Staroverov, T. Keith, R. Kobayashi, J. Normand, 
 K. Raghavachari, A. Rendell, J. C. Burant, S. S. Iyengar, J. Tomasi, 
 M. Cossi, N. Rega, J. M. Millam, M. Klene, J. E. Knox, J. B. Cross, 
 V. Bakken, C. Adamo, J. Jaramillo, R. Gomperts, R. E. Stratmann, 
 O. Yazyev, A. J. Austin, R. Cammi, C. Pomelli, J. W. Ochterski, 
 R. L. Martin, K. Morokuma, V. G. Zakrzewski, G. A. Voth, 
 P. Salvador, J. J. Dannenberg, S. Dapprich, A. D. Daniels, 
 O. Farkas, J. B. Foresman, J. V. Ortiz, J. Cioslowski, 
 and D. J. Fox, Gaussian, Inc., Wallingford CT, 2013.
 
 ******************************************
 Gaussian 09:  AS64L-G09RevD.01 24-Apr-2013
                 7-Dec-2018 
 ******************************************
 %Chk=CH400194
 %Mem=2GB
 %NProcShared=16
 Will use up to   16 processors via shared memory.
 ---------------------------------------------
 #T M05/Gen test Massage SCF=(tight,maxcyc=40)
 ---------------------------------------------
 -------
 M05 opt
 -------
 Symbolic Z-matrix:
 Charge =  0 Multiplicity = 1
 6-Bq                  0.        0.        0. 
 1-Bq                  0.82994   0.       -0.73293 
 1-Bq                 -0.08849  -1.00448   0.45737 
 1-Bq                  0.2051    0.7484    0.78982 
 1-Bq                 -0.94655   0.25608  -0.51425 
 6                     0.        0.        3.16148 
 1                     0.09208  -1.02137   2.74397 
 1                    -1.01463   0.1362    3.58333 
 1                     0.75379   0.14163   3.96006 
 1                     0.16876   0.74354   2.35858 
 
                    Distance matrix (angstroms):
                    1          2          3          4          5
     1  C    0.000000
     2  H    1.107243   0.000000
     3  H    1.107243   1.808119   0.000000
     4  H    1.107243   1.808119   1.808119   0.000000
     5  H    1.107243   1.808119   1.808119   1.808119   0.000000
     6  C    3.161481   3.981866   2.886008   2.495384   3.804282
     7  H    2.929340   3.698171   2.293784   2.638852   3.650565
     8  H    3.726695   4.695858   3.454057   3.109054   4.099899
     9  H    4.033647   4.695742   3.780455   3.274083   4.787871
    10  H    2.478751   3.247679   2.595444   1.569183   3.120046
                    6          7          8          9         10
     6  C    0.000000
     7  H    1.107243   0.000000
     8  H    1.107242   1.808119   0.000000
     9  H    1.107243   1.808119   1.808119   0.000000
    10  H    1.107243   1.808119   1.808119   1.808119   0.000000
 Symmetry turned off by external request.
 This structure is nearly, but not quite of a higher symmetry.
 Consider Symm=Loose if the higher symmetry is desired.
 Framework group  C1[X(C2H8)]
 Deg. of freedom    24
 Rotational constants (GHZ):     76.6916053      5.8286580      5.8286580
   276 basis functions,   360 primitive gaussians,   310 cartesian basis functions
     5 alpha electrons        5 beta electrons
       nuclear repulsion energy        13.2261669980 Hartrees.
 IMHF & INEx in M05                  614413                  385587
 NAtoms=   10 NActive=   10 NUniq=   10 SFac= 1.00D+00 NAtFMM=   60 NAOKFM=F Big=F
 ExpMin= 2.53D-02 ExpMax= 8.24D+03 ExpMxC= 2.81D+02 IAcc=3 IRadAn=         5 AccDes= 0.00D+00
 Harris functional with IExCor= 1009 and IRadAn=       5 diagonalized for initial guess.
 HarFok:  IExCor= 1009 AccDes= 0.00D+00 IRadAn=         5 IDoV= 1 UseB2=F ITyADJ=14
 ICtDFT=  3500011 ScaDFX=  1.000000  1.000000  1.000000  1.000000
 FoFCou: FMM=F IPFlag=           0 FMFlag=      100000 FMFlg1=           0
         NFxFlg=           0 DoJE=T BraDBF=F KetDBF=T FulRan=T
         wScrn=  0.000000 ICntrl=     500 IOpCl=  0 I1Cent=   200000004 NGrid=           0
         NMat0=    1 NMatS0=      1 NMatT0=    0 NMatD0=    1 NMtDS0=    0 NMtDT0=    0
 Symmetry not used in FoFCou.
 SCF Done:  E(RM05) =  -40.9122783335     A.U. after    7 cycles
            NFock=  7  Conv=0.51D-08     -V/T= 2.0127

 **********************************************************************

            Population analysis using the SCF density.

 **********************************************************************

 Alpha  occ. eigenvalues --  -10.74528  -0.82769  -0.48754  -0.48752  -0.48752
 Alpha virt. eigenvalues --   -0.00111   0.02407   0.02803   0.02953   0.04820
 Alpha virt. eigenvalues --    0.05052   0.05243   0.07536   0.08553   0.08779
 Alpha virt. eigenvalues --    0.09583   0.10817   0.11225   0.11991   0.12879
 Alpha virt. eigenvalues --    0.13191   0.15629   0.15902   0.17108   0.18062
 Alpha virt. eigenvalues --    0.20597   0.22276   0.24924   0.25742   0.26227
 Alpha virt. eigenvalues --    0.26653   0.27164   0.28053   0.28690   0.29405
 Alpha virt. eigenvalues --    0.30206   0.30655   0.31180   0.31788   0.32454
 Alpha virt. eigenvalues --    0.33247   0.34084   0.35620   0.36242   0.36408
 Alpha virt. eigenvalues --    0.37875   0.38683   0.40050   0.41073   0.42223
 Alpha virt. eigenvalues --    0.44079   0.44590   0.44910   0.45795   0.48757
 Alpha virt. eigenvalues --    0.50269   0.51352   0.51830   0.53054   0.55159
 Alpha virt. eigenvalues --    0.56054   0.57126   0.57979   0.62227   0.63413
 Alpha virt. eigenvalues --    0.65134   0.65419   0.67467   0.67752   0.70345
 Alpha virt. eigenvalues --    0.71455   0.73349   0.74295   0.77063   0.77521
 Alpha virt. eigenvalues --    0.79066   0.79795   0.83350   0.85077   0.86217
 Alpha virt. eigenvalues --    0.89225   0.90281   0.91830   0.92286   0.92680
 Alpha virt. eigenvalues --    0.94273   0.95045   0.96280   0.96808   0.98387
 Alpha virt. eigenvalues --    0.99444   1.00301   1.02218   1.02570   1.02731
 Alpha virt. eigenvalues --    1.05331   1.06064   1.06445   1.07783   1.09170
 Alpha virt. eigenvalues --    1.09726   1.10537   1.11169   1.13803   1.15106
 Alpha virt. eigenvalues --    1.16126   1.16907   1.19618   1.19959   1.21479
 Alpha virt. eigenvalues --    1.23425   1.25873   1.27179   1.29139   1.31872
 Alpha virt. eigenvalues --    1.33397   1.33847   1.35049   1.38717   1.39271
 Alpha virt. eigenvalues --    1.40897   1.41994   1.42978   1.45582   1.47012
 Alpha virt. eigenvalues --    1.48235   1.49296   1.50134   1.52976   1.54846
 Alpha virt. eigenvalues --    1.58690   1.60758   1.60952   1.62619   1.68379
 Alpha virt. eigenvalues --    1.69771   1.70265   1.71472   1.74338   1.76937
 Alpha virt. eigenvalues --    1.80240   1.81448   1.84774   1.86599   1.87482
 Alpha virt. eigenvalues --    1.91497   1.93547   1.94937   1.96564   1.97977
 Alpha virt. eigenvalues --    2.00884   2.01120   2.03351   2.04458   2.05498
 Alpha virt. eigenvalues --    2.06695   2.08777   2.11254   2.13389   2.17866
 Alpha virt. eigenvalues --    2.22009   2.31882   2.34832   2.39589   2.45870
 Alpha virt. eigenvalues --    2.49487   2.54280   2.65556   2.66800   2.69671
 Alpha virt. eigenvalues --    2.77389   2.93003   2.93475   2.96931   3.07869
 Alpha virt. eigenvalues --    3.23822   3.26921   3.28299   3.29825   3.30839
 Alpha virt. eigenvalues --    3.33647   3.36489   3.44602   3.59380   3.60633
 Alpha virt. eigenvalues --    3.66240   3.70968   3.71584   3.73421   3.75497
 Alpha virt. eigenvalues --    3.79162   3.80641   3.82310   3.84133   3.85943
 Alpha virt. eigenvalues --    3.88124   3.96179   3.99958   4.01381   4.05930
 Alpha virt. eigenvalues --    4.09889   4.18312   4.18892   4.20987   4.22751
 Alpha virt. eigenvalues --    4.27614   4.29858   4.31208   4.32838   4.34768
 Alpha virt. eigenvalues --    4.35415   4.36821   4.41995   4.43950   4.45319
 Alpha virt. eigenvalues --    4.46766   4.47410   4.51182   4.51921   4.53378
 Alpha virt. eigenvalues --    4.56038   4.58142   4.59056   4.63036   4.71721
 Alpha virt. eigenvalues --    4.76292   4.79239   4.80355   4.83412   4.85946
 Alpha virt. eigenvalues --    4.87285   4.89407   4.93722   5.00262   5.10756
 Alpha virt. eigenvalues --    5.12812   5.15105   5.17105   5.20824   5.23736
 Alpha virt. eigenvalues --    5.25555   5.26715   5.27911   5.33348   5.36222
 Alpha virt. eigenvalues --    5.38191   5.41511   5.45281   5.48092   5.48959
 Alpha virt. eigenvalues --    5.50593   5.60866   5.62409   5.73958   5.83602
 Alpha virt. eigenvalues --    6.06847   6.08857   6.09346   6.10090   6.11882
 Alpha virt. eigenvalues --    6.17959   6.20170   6.38978   6.78074   6.80846
 Alpha virt. eigenvalues --    6.87376   6.96452   7.58427   7.62981   7.65281
 Alpha virt. eigenvalues --    8.00987   8.04855   8.13287  10.29041  17.11895
 Alpha virt. eigenvalues --   52.93761
          Condensed to atoms (all electrons):
 Mulliken charges:
               1
     1  C    0.025984
     2  H    0.006316
     3  H    0.013303
     4  H   -0.056126
     5  H    0.001557
     6  C   -1.980513
     7  H    0.491732
     8  H    0.429355
     9  H    0.363023
    10  H    0.705370
 Sum of Mulliken charges =  -0.00000
 Mulliken charges with hydrogens summed into heavy atoms:
               1
     1  C   -0.008967
     6  C    0.008967
 Electronic spatial extent (au):  <R**2>=            393.4687
 Charge=             -0.0000 electrons
 Dipole moment (field-independent basis, Debye):
    X=             -0.0002    Y=              0.0001    Z=              0.0000  Tot=              0.0002

 Test job not archived.
 1\1\GINC-CHIMERA-NODE43\SP\RM05\Gen\C2H8\CONNORNM\07-Dec-2018\0\\#T M0
 5/Gen test Massage SCF=(tight,maxcyc=40)\\M05 opt\\0,1\C,0,0.,0.,0.\H,
 0,0.8299374,0.,-0.73293238\H,0,-0.08849312,-1.00447569,0.45736584\H,0,
 0.2051038,0.7483992,0.78982088\H,0,-0.94654808,0.25607649,-0.51425434\
 C,0,0.,0.,3.16148139\H,0,0.09207683,-1.0213672,2.74396869\H,0,-1.01463
 404,0.13620203,3.58332582\H,0,0.75379498,0.14162802,3.96005549\H,0,0.1
 6876223,0.74353715,2.35857556\\Version=AS64L-G09RevD.01\HF=-40.9122783
 \RMSD=5.123e-09\Dipole=-0.0000639,0.000044,0.0000096\Quadrupole=-0.000
 492,0.0004035,0.0000885,0.0002981,-0.0000248,0.0004895\PG=C01 [X(C2H8)
 ]\\@


 EDUCATION IS NOT TRAINING BUT RATHER THE PROCESS THAT EQUIPS YOU TO
 ENTERTAIN YOURSELF, A FRIEND, OR AN IDEA.  -- WALLACE STERLING
 Job cpu time:       0 days  0 hours 12 minutes 55.3 seconds.
 File lengths (MBytes):  RWF=     41 Int=      0 D2E=      0 Chk=      4 Scr=      1
 Normal termination of Gaussian 09 at Fri Dec  7 14:02:49 2018.
