 Entering Gaussian System, Link 0=/data/szalewicgrp/connornm/opt/Gaussian/g09-M05-par/g09/g09
 AtFile(1): aug-cc-pVTZ.gbs
 Initial command:
 /data/szalewicgrp/connornm/opt/Gaussian/g09-M05-par/g09/l1.exe "/scratch/local/Gau-46036.inp" -scrdir="/scratch/local/"
 Entering Link 1 = /data/szalewicgrp/connornm/opt/Gaussian/g09-M05-par/g09/l1.exe PID=     46037.
  
 Copyright (c) 1988,1990,1992,1993,1995,1998,2003,2009,2013,
            Gaussian, Inc.  All Rights Reserved.
  
 This is part of the Gaussian(R) 09 program.  It is based on
 the Gaussian(R) 03 system (copyright 2003, Gaussian, Inc.),
 the Gaussian(R) 98 system (copyright 1998, Gaussian, Inc.),
 the Gaussian(R) 94 system (copyright 1995, Gaussian, Inc.),
 the Gaussian 92(TM) system (copyright 1992, Gaussian, Inc.),
 the Gaussian 90(TM) system (copyright 1990, Gaussian, Inc.),
 the Gaussian 88(TM) system (copyright 1988, Gaussian, Inc.),
 the Gaussian 86(TM) system (copyright 1986, Carnegie Mellon
 University), and the Gaussian 82(TM) system (copyright 1983,
 Carnegie Mellon University). Gaussian is a federally registered
 trademark of Gaussian, Inc.
  
 This software contains proprietary and confidential information,
 including trade secrets, belonging to Gaussian, Inc.
  
 This software is provided under written license and may be
 used, copied, transmitted, or stored only in accord with that
 written license.
  
 The following legend is applicable only to US Government
 contracts under FAR:
  
                    RESTRICTED RIGHTS LEGEND
  
 Use, reproduction and disclosure by the US Government is
 subject to restrictions as set forth in subparagraphs (a)
 and (c) of the Commercial Computer Software - Restricted
 Rights clause in FAR 52.227-19.
  
 Gaussian, Inc.
 340 Quinnipiac St., Bldg. 40, Wallingford CT 06492
  
  
 ---------------------------------------------------------------
 Warning -- This program may not be used in any manner that
 competes with the business of Gaussian, Inc. or will provide
 assistance to any competitor of Gaussian, Inc.  The licensee
 of this program is prohibited from giving any competitor of
 Gaussian, Inc. access to this program.  By using this program,
 the user acknowledges that Gaussian, Inc. is engaged in the
 business of creating and licensing software in the field of
 computational chemistry and represents and warrants to the
 licensee that it is not a competitor of Gaussian, Inc. and that
 it will not use this program in any manner prohibited above.
 ---------------------------------------------------------------
  

 Cite this work as:
 Gaussian 09, Revision D.01,
 M. J. Frisch, G. W. Trucks, H. B. Schlegel, G. E. Scuseria, 
 M. A. Robb, J. R. Cheeseman, G. Scalmani, V. Barone, B. Mennucci, 
 G. A. Petersson, H. Nakatsuji, M. Caricato, X. Li, H. P. Hratchian, 
 A. F. Izmaylov, J. Bloino, G. Zheng, J. L. Sonnenberg, M. Hada, 
 M. Ehara, K. Toyota, R. Fukuda, J. Hasegawa, M. Ishida, T. Nakajima, 
 Y. Honda, O. Kitao, H. Nakai, T. Vreven, J. A. Montgomery, Jr., 
 J. E. Peralta, F. Ogliaro, M. Bearpark, J. J. Heyd, E. Brothers, 
 K. N. Kudin, V. N. Staroverov, T. Keith, R. Kobayashi, J. Normand, 
 K. Raghavachari, A. Rendell, J. C. Burant, S. S. Iyengar, J. Tomasi, 
 M. Cossi, N. Rega, J. M. Millam, M. Klene, J. E. Knox, J. B. Cross, 
 V. Bakken, C. Adamo, J. Jaramillo, R. Gomperts, R. E. Stratmann, 
 O. Yazyev, A. J. Austin, R. Cammi, C. Pomelli, J. W. Ochterski, 
 R. L. Martin, K. Morokuma, V. G. Zakrzewski, G. A. Voth, 
 P. Salvador, J. J. Dannenberg, S. Dapprich, A. D. Daniels, 
 O. Farkas, J. B. Foresman, J. V. Ortiz, J. Cioslowski, 
 and D. J. Fox, Gaussian, Inc., Wallingford CT, 2013.
 
 ******************************************
 Gaussian 09:  AS64L-G09RevD.01 24-Apr-2013
                 8-Dec-2018 
 ******************************************
 %Chk=CH400191
 %Mem=2GB
 %NProcShared=16
 Will use up to   16 processors via shared memory.
 -----------------------------------------------------------
 #T M05/Gen test Massage Symmetry=None SCF=(tight,maxcyc=60)
 -----------------------------------------------------------
 -------
 M05 opt
 -------
 Symbolic Z-matrix:
 Charge =  0 Multiplicity = 1
 6-Bq                  0.        0.        0. 
 1-Bq                  0.99099   0.        0.49388 
 1-Bq                  0.11307   0.31873  -1.05433 
 1-Bq                 -0.42891  -1.02025   0.03318 
 1-Bq                 -0.67515   0.70153   0.52727 
 6                     0.        0.        2.97976 
 1                    -0.5313   -0.19013   2.0271 
 1                    -0.60813   0.67439   3.61329 
 1                     0.16143  -0.95853   3.51 
 1                     0.978     0.47427   2.76864 
 
                    Distance matrix (angstroms):
                    1          2          3          4          5
     1  C    0.000000
     2  H    1.107243   0.000000
     3  H    1.107243   1.808119   0.000000
     4  H    1.107242   1.808119   1.808119   0.000000
     5  H    1.107242   1.808119   1.808119   1.808119   0.000000
     6  C    2.979755   2.676125   4.048237   3.147570   2.638682
     7  H    2.104175   2.168937   3.188942   2.162245   1.750777
     8  H    3.725652   3.569694   4.736381   3.964987   3.086864
     9  H    3.642102   3.271683   4.739916   3.527119   3.514582
    10  H    2.974353   2.323709   3.922677   3.419902   2.794331
                    6          7          8          9         10
     6  C    0.000000
     7  H    1.107243   0.000000
     8  H    1.107243   1.808119   0.000000
     9  H    1.107243   1.808119   1.808119   0.000000
    10  H    1.107243   1.808119   1.808119   1.808119   0.000000
 Symmetry turned off by external request.
 Rotational constants (GHZ):     76.6916054      6.4991946      6.4991946
   276 basis functions,   360 primitive gaussians,   310 cartesian basis functions
     5 alpha electrons        5 beta electrons
       nuclear repulsion energy        13.2261669712 Hartrees.
 IMHF & INEx in M05                  614413                  385587
 NAtoms=   10 NActive=   10 NUniq=   10 SFac= 1.00D+00 NAtFMM=   60 NAOKFM=F Big=F
 ExpMin= 2.53D-02 ExpMax= 8.24D+03 ExpMxC= 2.81D+02 IAcc=3 IRadAn=         5 AccDes= 0.00D+00
 Harris functional with IExCor= 1009 and IRadAn=       5 diagonalized for initial guess.
 HarFok:  IExCor= 1009 AccDes= 0.00D+00 IRadAn=         5 IDoV= 1 UseB2=F ITyADJ=14
 ICtDFT=  3500011 ScaDFX=  1.000000  1.000000  1.000000  1.000000
 FoFCou: FMM=F IPFlag=           0 FMFlag=      100000 FMFlg1=           0
         NFxFlg=           0 DoJE=T BraDBF=F KetDBF=T FulRan=T
         wScrn=  0.000000 ICntrl=     500 IOpCl=  0 I1Cent=   200000004 NGrid=           0
         NMat0=    1 NMatS0=      1 NMatT0=    0 NMatD0=    1 NMtDS0=    0 NMtDT0=    0
 Symmetry not used in FoFCou.
 SCF Done:  E(RM05) =  -40.9122889392     A.U. after    7 cycles
            NFock=  7  Conv=0.54D-08     -V/T= 2.0127

 **********************************************************************

            Population analysis using the SCF density.

 **********************************************************************

 Alpha  occ. eigenvalues --  -10.74530  -0.82769  -0.48754  -0.48752  -0.48752
 Alpha virt. eigenvalues --   -0.00122   0.02439   0.02716   0.02869   0.04789
 Alpha virt. eigenvalues --    0.05143   0.05523   0.06880   0.07877   0.09076
 Alpha virt. eigenvalues --    0.09852   0.10751   0.11308   0.11663   0.12390
 Alpha virt. eigenvalues --    0.13634   0.14983   0.15758   0.17006   0.18430
 Alpha virt. eigenvalues --    0.21291   0.21464   0.22823   0.26110   0.26615
 Alpha virt. eigenvalues --    0.27039   0.27547   0.28281   0.28644   0.29453
 Alpha virt. eigenvalues --    0.30492   0.30676   0.30854   0.31454   0.32594
 Alpha virt. eigenvalues --    0.33941   0.34199   0.35084   0.35641   0.36234
 Alpha virt. eigenvalues --    0.36491   0.39629   0.40629   0.41196   0.42271
 Alpha virt. eigenvalues --    0.43494   0.44192   0.44890   0.45369   0.47143
 Alpha virt. eigenvalues --    0.48446   0.49729   0.50602   0.51261   0.51959
 Alpha virt. eigenvalues --    0.53611   0.55423   0.58184   0.61733   0.63403
 Alpha virt. eigenvalues --    0.64412   0.65322   0.67215   0.70219   0.71600
 Alpha virt. eigenvalues --    0.72167   0.72591   0.74848   0.77189   0.78779
 Alpha virt. eigenvalues --    0.80004   0.81563   0.83610   0.85076   0.87381
 Alpha virt. eigenvalues --    0.87996   0.89243   0.91436   0.91859   0.92828
 Alpha virt. eigenvalues --    0.93451   0.96111   0.96910   0.98415   0.99155
 Alpha virt. eigenvalues --    0.99644   1.00538   1.01143   1.01785   1.02636
 Alpha virt. eigenvalues --    1.03552   1.04482   1.06338   1.07789   1.08933
 Alpha virt. eigenvalues --    1.09751   1.10624   1.12064   1.13407   1.13874
 Alpha virt. eigenvalues --    1.16262   1.18290   1.18700   1.19700   1.20882
 Alpha virt. eigenvalues --    1.22139   1.22793   1.25465   1.28658   1.29722
 Alpha virt. eigenvalues --    1.31981   1.33335   1.34237   1.36048   1.39072
 Alpha virt. eigenvalues --    1.40437   1.43553   1.44387   1.45813   1.47193
 Alpha virt. eigenvalues --    1.48820   1.51508   1.52868   1.55131   1.57084
 Alpha virt. eigenvalues --    1.58064   1.62472   1.63455   1.64770   1.66827
 Alpha virt. eigenvalues --    1.69291   1.71274   1.72927   1.75238   1.78078
 Alpha virt. eigenvalues --    1.80800   1.81377   1.82776   1.85525   1.86900
 Alpha virt. eigenvalues --    1.91667   1.94525   1.94760   1.95078   1.96564
 Alpha virt. eigenvalues --    1.98231   2.00881   2.01540   2.02003   2.03182
 Alpha virt. eigenvalues --    2.07333   2.10429   2.13748   2.17865   2.20931
 Alpha virt. eigenvalues --    2.23888   2.28967   2.32422   2.36294   2.43878
 Alpha virt. eigenvalues --    2.45097   2.55420   2.64274   2.65217   2.72672
 Alpha virt. eigenvalues --    2.78897   2.85869   2.96460   3.00017   3.06387
 Alpha virt. eigenvalues --    3.24996   3.27761   3.28991   3.29939   3.32068
 Alpha virt. eigenvalues --    3.33709   3.37470   3.49820   3.60697   3.61300
 Alpha virt. eigenvalues --    3.65607   3.71681   3.72374   3.74760   3.77598
 Alpha virt. eigenvalues --    3.79544   3.81672   3.82479   3.86776   3.86986
 Alpha virt. eigenvalues --    3.88585   3.94551   4.02886   4.06149   4.08962
 Alpha virt. eigenvalues --    4.14490   4.15475   4.17092   4.18753   4.21212
 Alpha virt. eigenvalues --    4.23960   4.24789   4.30479   4.33022   4.34962
 Alpha virt. eigenvalues --    4.35766   4.41470   4.42187   4.43561   4.45873
 Alpha virt. eigenvalues --    4.46802   4.49993   4.51616   4.53557   4.54568
 Alpha virt. eigenvalues --    4.56160   4.58721   4.60421   4.67228   4.72651
 Alpha virt. eigenvalues --    4.77144   4.79142   4.81999   4.83772   4.86832
 Alpha virt. eigenvalues --    4.88982   4.92672   4.92966   5.04720   5.08042
 Alpha virt. eigenvalues --    5.14906   5.16363   5.19383   5.21676   5.24108
 Alpha virt. eigenvalues --    5.25470   5.26448   5.28684   5.31719   5.35884
 Alpha virt. eigenvalues --    5.37301   5.41118   5.44682   5.49102   5.51932
 Alpha virt. eigenvalues --    5.52519   5.57406   5.61849   5.69947   5.86833
 Alpha virt. eigenvalues --    6.07054   6.07793   6.09766   6.11149   6.11566
 Alpha virt. eigenvalues --    6.14795   6.18342   6.21069   6.76428   6.80527
 Alpha virt. eigenvalues --    6.81836   6.92327   7.58315   7.59194   7.64527
 Alpha virt. eigenvalues --    8.00199   8.02183   8.10862  10.38657  17.06433
 Alpha virt. eigenvalues --   52.71762
          Condensed to atoms (all electrons):
 Mulliken charges:
               1
     1  C   -0.018033
     2  H    0.028442
     3  H   -0.010009
     4  H    0.018380
     5  H    0.042812
     6  C   -1.937004
     7  H    0.582091
     8  H    0.409293
     9  H    0.430609
    10  H    0.453420
 Sum of Mulliken charges =  -0.00000
 Mulliken charges with hydrogens summed into heavy atoms:
               1
     1  C    0.061592
     6  C   -0.061592
 Electronic spatial extent (au):  <R**2>=            353.6142
 Charge=             -0.0000 electrons
 Dipole moment (field-independent basis, Debye):
    X=             -0.0003    Y=             -0.0000    Z=             -0.0000  Tot=              0.0003

 Test job not archived.
 1\1\GINC-CHIMERA-NODE56\SP\RM05\Gen\C2H8\CONNORNM\08-Dec-2018\0\\#T M0
 5/Gen test Massage Symmetry=None SCF=(tight,maxcyc=60)\\M05 opt\\0,1\C
 ,0,0.,0.,0.\H,0,0.99099391,0.,0.49387957\H,0,0.11306894,0.31872747,-1.
 05433115\H,0,-0.42891147,-1.02025488,0.03317948\H,0,-0.67515138,0.7015
 2741,0.52727209\C,0,0.,0.,2.97975541\H,0,-0.53130046,-0.19012874,2.027
 09763\H,0,-0.60812963,0.67438795,3.61328931\H,0,0.16142858,-0.95852559
 ,3.50999637\H,0,0.9780015,0.47426638,2.76863833\\Version=AS64L-G09RevD
 .01\HF=-40.9122889\RMSD=5.385e-09\Dipole=-0.0001029,-0.0000013,-0.0000
 197\Quadrupole=0.0006381,0.0000816,-0.0007196,0.0003183,-0.0007364,0.0
 00161\PG=Unknown\\@


 In the beginning the Universe was created.
 This has made a lot of people very angry
 and been widely regarded as a bad move.
                               -D.Adams
 Job cpu time:       0 days  0 hours 13 minutes  0.7 seconds.
 File lengths (MBytes):  RWF=     41 Int=      0 D2E=      0 Chk=      4 Scr=      1
 Normal termination of Gaussian 09 at Sat Dec  8 10:20:26 2018.
