 Entering Gaussian System, Link 0=/data/szalewicgrp/connornm/opt/Gaussian/g09-M05-par/g09/g09
 AtFile(1): aug-cc-pVTZ.gbs
 Initial command:
 /data/szalewicgrp/connornm/opt/Gaussian/g09-M05-par/g09/l1.exe "/scratch/local/Gau-18832.inp" -scrdir="/scratch/local/"
 Entering Link 1 = /data/szalewicgrp/connornm/opt/Gaussian/g09-M05-par/g09/l1.exe PID=     18833.
  
 Copyright (c) 1988,1990,1992,1993,1995,1998,2003,2009,2013,
            Gaussian, Inc.  All Rights Reserved.
  
 This is part of the Gaussian(R) 09 program.  It is based on
 the Gaussian(R) 03 system (copyright 2003, Gaussian, Inc.),
 the Gaussian(R) 98 system (copyright 1998, Gaussian, Inc.),
 the Gaussian(R) 94 system (copyright 1995, Gaussian, Inc.),
 the Gaussian 92(TM) system (copyright 1992, Gaussian, Inc.),
 the Gaussian 90(TM) system (copyright 1990, Gaussian, Inc.),
 the Gaussian 88(TM) system (copyright 1988, Gaussian, Inc.),
 the Gaussian 86(TM) system (copyright 1986, Carnegie Mellon
 University), and the Gaussian 82(TM) system (copyright 1983,
 Carnegie Mellon University). Gaussian is a federally registered
 trademark of Gaussian, Inc.
  
 This software contains proprietary and confidential information,
 including trade secrets, belonging to Gaussian, Inc.
  
 This software is provided under written license and may be
 used, copied, transmitted, or stored only in accord with that
 written license.
  
 The following legend is applicable only to US Government
 contracts under FAR:
  
                    RESTRICTED RIGHTS LEGEND
  
 Use, reproduction and disclosure by the US Government is
 subject to restrictions as set forth in subparagraphs (a)
 and (c) of the Commercial Computer Software - Restricted
 Rights clause in FAR 52.227-19.
  
 Gaussian, Inc.
 340 Quinnipiac St., Bldg. 40, Wallingford CT 06492
  
  
 ---------------------------------------------------------------
 Warning -- This program may not be used in any manner that
 competes with the business of Gaussian, Inc. or will provide
 assistance to any competitor of Gaussian, Inc.  The licensee
 of this program is prohibited from giving any competitor of
 Gaussian, Inc. access to this program.  By using this program,
 the user acknowledges that Gaussian, Inc. is engaged in the
 business of creating and licensing software in the field of
 computational chemistry and represents and warrants to the
 licensee that it is not a competitor of Gaussian, Inc. and that
 it will not use this program in any manner prohibited above.
 ---------------------------------------------------------------
  

 Cite this work as:
 Gaussian 09, Revision D.01,
 M. J. Frisch, G. W. Trucks, H. B. Schlegel, G. E. Scuseria, 
 M. A. Robb, J. R. Cheeseman, G. Scalmani, V. Barone, B. Mennucci, 
 G. A. Petersson, H. Nakatsuji, M. Caricato, X. Li, H. P. Hratchian, 
 A. F. Izmaylov, J. Bloino, G. Zheng, J. L. Sonnenberg, M. Hada, 
 M. Ehara, K. Toyota, R. Fukuda, J. Hasegawa, M. Ishida, T. Nakajima, 
 Y. Honda, O. Kitao, H. Nakai, T. Vreven, J. A. Montgomery, Jr., 
 J. E. Peralta, F. Ogliaro, M. Bearpark, J. J. Heyd, E. Brothers, 
 K. N. Kudin, V. N. Staroverov, T. Keith, R. Kobayashi, J. Normand, 
 K. Raghavachari, A. Rendell, J. C. Burant, S. S. Iyengar, J. Tomasi, 
 M. Cossi, N. Rega, J. M. Millam, M. Klene, J. E. Knox, J. B. Cross, 
 V. Bakken, C. Adamo, J. Jaramillo, R. Gomperts, R. E. Stratmann, 
 O. Yazyev, A. J. Austin, R. Cammi, C. Pomelli, J. W. Ochterski, 
 R. L. Martin, K. Morokuma, V. G. Zakrzewski, G. A. Voth, 
 P. Salvador, J. J. Dannenberg, S. Dapprich, A. D. Daniels, 
 O. Farkas, J. B. Foresman, J. V. Ortiz, J. Cioslowski, 
 and D. J. Fox, Gaussian, Inc., Wallingford CT, 2013.
 
 ******************************************
 Gaussian 09:  AS64L-G09RevD.01 24-Apr-2013
                 8-Dec-2018 
 ******************************************
 %Chk=CH400084
 %Mem=2GB
 %NProcShared=16
 Will use up to   16 processors via shared memory.
 ---------------------------------------------
 #T M05/Gen test Massage SCF=(tight,maxcyc=40)
 ---------------------------------------------
 -------
 M05 opt
 -------
 Symbolic Z-matrix:
 Charge =  0 Multiplicity = 1
 6-Bq                  0.        0.        0. 
 1-Bq                  1.05838   0.        0.32531 
 1-Bq                 -0.65741  -0.12145   0.88263 
 1-Bq                 -0.23138   0.95865  -0.50343 
 1-Bq                 -0.16958  -0.8372   -0.70451 
 6                     0.        0.        4.23749 
 1                     0.96054   0.35779   3.81876 
 1                     0.1852   -0.87418   4.89133 
 1                    -0.46954   0.81006   4.82853 
 1                    -0.6762   -0.29368   3.41136 
 
                    Distance matrix (angstroms):
                    1          2          3          4          5
     1  C    0.000000
     2  H    1.107243   0.000000
     3  H    1.107242   1.808119   0.000000
     4  H    1.107242   1.808119   1.808119   0.000000
     5  H    1.107243   1.808119   1.808119   1.808119   0.000000
     6  C    4.237495   4.052821   3.420823   4.842411   5.015282
     7  H    3.953932   3.513089   3.386484   4.523612   4.813016
     8  H    4.972281   4.730238   4.164880   5.712814   5.607194
     9  H    4.918469   4.823868   4.058704   5.339345   5.780823
    10  H    3.490114   3.552286   2.534657   4.134225   4.182401
                    6          7          8          9         10
     6  C    0.000000
     7  H    1.107242   0.000000
     8  H    1.107242   1.808119   0.000000
     9  H    1.107243   1.808119   1.808119   0.000000
    10  H    1.107243   1.808119   1.808119   1.808119   0.000000
 Symmetry turned off by external request.
 This structure is nearly, but not quite of a higher symmetry.
 Consider Symm=Loose if the higher symmetry is desired.
 Framework group  C1[X(C2H8)]
 Deg. of freedom    24
 Rotational constants (GHZ):     76.6916057      3.3575168      3.3575168
   276 basis functions,   360 primitive gaussians,   310 cartesian basis functions
     5 alpha electrons        5 beta electrons
       nuclear repulsion energy        13.2261670055 Hartrees.
 IMHF & INEx in M05                  614413                  385587
 NAtoms=   10 NActive=   10 NUniq=   10 SFac= 1.00D+00 NAtFMM=   60 NAOKFM=F Big=F
 ExpMin= 2.53D-02 ExpMax= 8.24D+03 ExpMxC= 2.81D+02 IAcc=3 IRadAn=         5 AccDes= 0.00D+00
 Harris functional with IExCor= 1009 and IRadAn=       5 diagonalized for initial guess.
 HarFok:  IExCor= 1009 AccDes= 0.00D+00 IRadAn=         5 IDoV= 1 UseB2=F ITyADJ=14
 ICtDFT=  3500011 ScaDFX=  1.000000  1.000000  1.000000  1.000000
 FoFCou: FMM=F IPFlag=           0 FMFlag=      100000 FMFlg1=           0
         NFxFlg=           0 DoJE=T BraDBF=F KetDBF=T FulRan=T
         wScrn=  0.000000 ICntrl=     500 IOpCl=  0 I1Cent=   200000004 NGrid=           0
         NMat0=    1 NMatS0=      1 NMatT0=    0 NMatD0=    1 NMtDS0=    0 NMtDT0=    0
 Symmetry not used in FoFCou.
 SCF Done:  E(RM05) =  -44.2930957922     A.U. after   10 cycles
            NFock= 10  Conv=0.10D-08     -V/T= 2.0246

 **********************************************************************

            Population analysis using the SCF density.

 **********************************************************************

 Alpha  occ. eigenvalues --  -11.62238  -0.92992  -0.62331  -0.62330  -0.62329
 Alpha virt. eigenvalues --   -0.06494  -0.00200  -0.00151  -0.00130   0.02479
 Alpha virt. eigenvalues --    0.02611   0.02725   0.03371   0.05034   0.05119
 Alpha virt. eigenvalues --    0.06254   0.06652   0.07468   0.08691   0.08821
 Alpha virt. eigenvalues --    0.09027   0.10645   0.11101   0.12556   0.13197
 Alpha virt. eigenvalues --    0.15359   0.18667   0.20504   0.20640   0.20861
 Alpha virt. eigenvalues --    0.21123   0.22283   0.22579   0.22792   0.23815
 Alpha virt. eigenvalues --    0.24555   0.25048   0.25691   0.27466   0.27788
 Alpha virt. eigenvalues --    0.28161   0.29007   0.29995   0.30799   0.31146
 Alpha virt. eigenvalues --    0.32036   0.34061   0.34118   0.34752   0.35802
 Alpha virt. eigenvalues --    0.36812   0.38154   0.38459   0.40546   0.41434
 Alpha virt. eigenvalues --    0.43209   0.44485   0.44709   0.46751   0.47870
 Alpha virt. eigenvalues --    0.50487   0.51503   0.53058   0.53396   0.55621
 Alpha virt. eigenvalues --    0.58518   0.59009   0.60406   0.61930   0.62482
 Alpha virt. eigenvalues --    0.63247   0.65186   0.66443   0.68279   0.68665
 Alpha virt. eigenvalues --    0.69032   0.70167   0.72940   0.74336   0.76122
 Alpha virt. eigenvalues --    0.77053   0.78261   0.80386   0.81778   0.82229
 Alpha virt. eigenvalues --    0.82879   0.84662   0.85401   0.88286   0.88963
 Alpha virt. eigenvalues --    0.91772   0.92738   0.93926   0.94576   0.95209
 Alpha virt. eigenvalues --    0.95854   0.96870   0.97728   0.98052   1.00313
 Alpha virt. eigenvalues --    1.00815   1.02880   1.03728   1.04151   1.04565
 Alpha virt. eigenvalues --    1.06269   1.07383   1.08135   1.09332   1.10849
 Alpha virt. eigenvalues --    1.12510   1.14295   1.17115   1.18847   1.20547
 Alpha virt. eigenvalues --    1.21996   1.22560   1.23823   1.24749   1.28262
 Alpha virt. eigenvalues --    1.30982   1.31829   1.32230   1.33454   1.34543
 Alpha virt. eigenvalues --    1.34921   1.36777   1.37391   1.37957   1.38745
 Alpha virt. eigenvalues --    1.42092   1.42505   1.44332   1.45844   1.50147
 Alpha virt. eigenvalues --    1.51851   1.53845   1.55768   1.57926   1.60369
 Alpha virt. eigenvalues --    1.62317   1.65767   1.69339   1.70072   1.72782
 Alpha virt. eigenvalues --    1.75856   1.81884   1.83312   1.84335   1.85302
 Alpha virt. eigenvalues --    1.87194   1.90446   1.94699   1.96875   2.01273
 Alpha virt. eigenvalues --    2.02282   2.02819   2.03622   2.05067   2.06088
 Alpha virt. eigenvalues --    2.14012   2.23553   2.27018   2.31216   2.32435
 Alpha virt. eigenvalues --    2.44793   2.45463   2.48486   2.62013   2.62412
 Alpha virt. eigenvalues --    2.62973   2.67898   2.68526   2.72689   2.85233
 Alpha virt. eigenvalues --    3.05962   3.09017   3.09230   3.09995   3.11004
 Alpha virt. eigenvalues --    3.11975   3.12431   3.24528   3.35449   3.35692
 Alpha virt. eigenvalues --    3.38865   3.53446   3.55790   3.56175   3.56605
 Alpha virt. eigenvalues --    3.58928   3.61241   3.63013   3.65416   3.69026
 Alpha virt. eigenvalues --    3.70812   3.98487   3.99637   4.00414   4.00844
 Alpha virt. eigenvalues --    4.01692   4.02815   4.03661   4.04551   4.10500
 Alpha virt. eigenvalues --    4.12563   4.14926   4.16688   4.16798   4.18503
 Alpha virt. eigenvalues --    4.19334   4.29193   4.29842   4.30875   4.32462
 Alpha virt. eigenvalues --    4.35914   4.37701   4.38122   4.41217   4.43731
 Alpha virt. eigenvalues --    4.45278   4.47574   4.52339   4.57128   4.58578
 Alpha virt. eigenvalues --    4.58746   4.59356   4.59880   4.61082   4.64531
 Alpha virt. eigenvalues --    4.76435   4.90901   4.91413   4.92515   4.98110
 Alpha virt. eigenvalues --    4.99064   4.99833   5.02592   5.13255   5.13823
 Alpha virt. eigenvalues --    5.14553   5.14735   5.16345   5.28351   5.29555
 Alpha virt. eigenvalues --    5.30054   5.30249   5.30729   5.34597   5.41351
 Alpha virt. eigenvalues --    5.44347   5.47623   5.48033   5.48932   5.54626
 Alpha virt. eigenvalues --    5.77003   5.78099   5.79919   6.13756   6.13942
 Alpha virt. eigenvalues --    6.16289   6.23608   6.23930   6.80077   6.80521
 Alpha virt. eigenvalues --    6.86667   6.96428   7.64820   7.66471   7.66796
 Alpha virt. eigenvalues --    8.02876   8.04406   8.07935  10.30845  15.50886
 Alpha virt. eigenvalues --   52.41836
          Condensed to atoms (all electrons):
 Mulliken charges:
               1
     1  C    0.001534
     2  H    0.001764
     3  H    0.016449
     4  H    0.000836
     5  H    0.000442
     6  C   -0.727061
     7  H    0.144545
     8  H    0.065474
     9  H    0.097471
    10  H    0.398545
 Sum of Mulliken charges =  -0.00000
 Mulliken charges with hydrogens summed into heavy atoms:
               1
     1  C    0.021026
     6  C   -0.021026
 Electronic spatial extent (au):  <R**2>=            677.5687
 Charge=              0.0000 electrons
 Dipole moment (field-independent basis, Debye):
    X=             -0.0000    Y=              0.0000    Z=              0.0004  Tot=              0.0004

 Test job not archived.
 1\1\GINC-CHIMERA-NODE48\SP\RM05\Gen\C2H8\CONNORNM\08-Dec-2018\0\\#T M0
 5/Gen test Massage SCF=(tight,maxcyc=40)\\M05 opt\\0,1\C,0,0.,0.,0.\H,
 0,1.05837631,0.,0.32530839\H,0,-0.65741308,-0.12145012,0.88263461\H,0,
 -0.23138322,0.95864564,-0.5034345\H,0,-0.16958,-0.83719552,-0.70450851
 \C,0,0.,0.,4.23749463\H,0,0.96053753,0.35779235,3.81876055\H,0,0.18520
 318,-0.87417841,4.89132782\H,0,-0.46953964,0.8100614,4.82852679\H,0,-0
 .67620108,-0.29367534,3.41136337\\Version=AS64L-G09RevD.01\HF=-44.2930
 958\RMSD=1.050e-09\Dipole=-0.0000014,0.0000087,0.0001714\Quadrupole=-0
 .0006538,-0.0011827,0.0018365,0.0007803,-0.0004496,-0.0003577\PG=C01 [
 X(C2H8)]\\@


 ... SUBJECTS WHICH DISCLOSE THEIR FULL POWER, MEANING AND BEAUTY AS SOON
 AS THEY ARE PRESENTED TO THE MIND HAVE VERY LITTLE OF THOSE QUALITIES
 TO DISCLOSE.
                           -- CHARLES DUTTON (1882)
 Job cpu time:       0 days  0 hours 15 minutes  2.3 seconds.
 File lengths (MBytes):  RWF=     41 Int=      0 D2E=      0 Chk=      4 Scr=      1
 Normal termination of Gaussian 09 at Sat Dec  8 13:14:01 2018.
