 Entering Gaussian System, Link 0=/data/szalewicgrp/connornm/opt/Gaussian/g09-M05-par/g09/g09
 AtFile(1): aug-cc-pVTZ.gbs
 Initial command:
 /data/szalewicgrp/connornm/opt/Gaussian/g09-M05-par/g09/l1.exe "/scratch/local/Gau-13606.inp" -scrdir="/scratch/local/"
 Entering Link 1 = /data/szalewicgrp/connornm/opt/Gaussian/g09-M05-par/g09/l1.exe PID=     13607.
  
 Copyright (c) 1988,1990,1992,1993,1995,1998,2003,2009,2013,
            Gaussian, Inc.  All Rights Reserved.
  
 This is part of the Gaussian(R) 09 program.  It is based on
 the Gaussian(R) 03 system (copyright 2003, Gaussian, Inc.),
 the Gaussian(R) 98 system (copyright 1998, Gaussian, Inc.),
 the Gaussian(R) 94 system (copyright 1995, Gaussian, Inc.),
 the Gaussian 92(TM) system (copyright 1992, Gaussian, Inc.),
 the Gaussian 90(TM) system (copyright 1990, Gaussian, Inc.),
 the Gaussian 88(TM) system (copyright 1988, Gaussian, Inc.),
 the Gaussian 86(TM) system (copyright 1986, Carnegie Mellon
 University), and the Gaussian 82(TM) system (copyright 1983,
 Carnegie Mellon University). Gaussian is a federally registered
 trademark of Gaussian, Inc.
  
 This software contains proprietary and confidential information,
 including trade secrets, belonging to Gaussian, Inc.
  
 This software is provided under written license and may be
 used, copied, transmitted, or stored only in accord with that
 written license.
  
 The following legend is applicable only to US Government
 contracts under FAR:
  
                    RESTRICTED RIGHTS LEGEND
  
 Use, reproduction and disclosure by the US Government is
 subject to restrictions as set forth in subparagraphs (a)
 and (c) of the Commercial Computer Software - Restricted
 Rights clause in FAR 52.227-19.
  
 Gaussian, Inc.
 340 Quinnipiac St., Bldg. 40, Wallingford CT 06492
  
  
 ---------------------------------------------------------------
 Warning -- This program may not be used in any manner that
 competes with the business of Gaussian, Inc. or will provide
 assistance to any competitor of Gaussian, Inc.  The licensee
 of this program is prohibited from giving any competitor of
 Gaussian, Inc. access to this program.  By using this program,
 the user acknowledges that Gaussian, Inc. is engaged in the
 business of creating and licensing software in the field of
 computational chemistry and represents and warrants to the
 licensee that it is not a competitor of Gaussian, Inc. and that
 it will not use this program in any manner prohibited above.
 ---------------------------------------------------------------
  

 Cite this work as:
 Gaussian 09, Revision D.01,
 M. J. Frisch, G. W. Trucks, H. B. Schlegel, G. E. Scuseria, 
 M. A. Robb, J. R. Cheeseman, G. Scalmani, V. Barone, B. Mennucci, 
 G. A. Petersson, H. Nakatsuji, M. Caricato, X. Li, H. P. Hratchian, 
 A. F. Izmaylov, J. Bloino, G. Zheng, J. L. Sonnenberg, M. Hada, 
 M. Ehara, K. Toyota, R. Fukuda, J. Hasegawa, M. Ishida, T. Nakajima, 
 Y. Honda, O. Kitao, H. Nakai, T. Vreven, J. A. Montgomery, Jr., 
 J. E. Peralta, F. Ogliaro, M. Bearpark, J. J. Heyd, E. Brothers, 
 K. N. Kudin, V. N. Staroverov, T. Keith, R. Kobayashi, J. Normand, 
 K. Raghavachari, A. Rendell, J. C. Burant, S. S. Iyengar, J. Tomasi, 
 M. Cossi, N. Rega, J. M. Millam, M. Klene, J. E. Knox, J. B. Cross, 
 V. Bakken, C. Adamo, J. Jaramillo, R. Gomperts, R. E. Stratmann, 
 O. Yazyev, A. J. Austin, R. Cammi, C. Pomelli, J. W. Ochterski, 
 R. L. Martin, K. Morokuma, V. G. Zakrzewski, G. A. Voth, 
 P. Salvador, J. J. Dannenberg, S. Dapprich, A. D. Daniels, 
 O. Farkas, J. B. Foresman, J. V. Ortiz, J. Cioslowski, 
 and D. J. Fox, Gaussian, Inc., Wallingford CT, 2013.
 
 ******************************************
 Gaussian 09:  AS64L-G09RevD.01 24-Apr-2013
                 8-Dec-2018 
 ******************************************
 %Chk=CH400185
 %Mem=2GB
 %NProcShared=16
 Will use up to   16 processors via shared memory.
 ---------------------------------------------
 #T M05/Gen test Massage SCF=(tight,maxcyc=40)
 ---------------------------------------------
 -------
 M05 opt
 -------
 Symbolic Z-matrix:
 Charge =  0 Multiplicity = 1
 6-Bq                  0.        0.        0. 
 1-Bq                  0.99886   0.       -0.47778 
 1-Bq                  0.06425   0.49237   0.98966 
 1-Bq                 -0.71555   0.551    -0.64061 
 1-Bq                 -0.34756  -1.04337   0.12872 
 6                     0.        0.        3.21741 
 1                     0.00335   0.68653   2.3487 
 1                     0.56237  -0.91936   2.96344 
 1                     0.47818   0.49786   4.08312 
 1                    -1.0439   -0.26503   3.47436 
 
                    Distance matrix (angstroms):
                    1          2          3          4          5
     1  C    0.000000
     2  H    1.107242   0.000000
     3  H    1.107242   1.808119   0.000000
     4  H    1.107243   1.808119   1.808119   0.000000
     5  H    1.107243   1.808119   1.808119   1.808119   0.000000
     6  C    3.217406   3.827805   2.282411   3.962306   3.278626
     7  H    2.446981   3.074301   1.374186   3.077518   2.836190
     8  H    3.153324   3.588552   2.477277   4.096850   2.979760
     9  H    4.141065   4.617444   3.121037   4.872519   4.323717
    10  H    3.637466   4.456736   2.824071   4.207932   3.504857
                    6          7          8          9         10
     6  C    0.000000
     7  H    1.107243   0.000000
     8  H    1.107242   1.808119   0.000000
     9  H    1.107242   1.808119   1.808119   0.000000
    10  H    1.107243   1.808119   1.808119   1.808119   0.000000
 Symmetry turned off by external request.
 This structure is nearly, but not quite of a higher symmetry.
 Consider Symm=Loose if the higher symmetry is desired.
 Framework group  C1[X(C2H8)]
 Deg. of freedom    24
 Rotational constants (GHZ):     76.6916055      5.6425710      5.6425710
   276 basis functions,   360 primitive gaussians,   310 cartesian basis functions
     5 alpha electrons        5 beta electrons
       nuclear repulsion energy        13.2261670038 Hartrees.
 IMHF & INEx in M05                  614413                  385587
 NAtoms=   10 NActive=   10 NUniq=   10 SFac= 1.00D+00 NAtFMM=   60 NAOKFM=F Big=F
 ExpMin= 2.53D-02 ExpMax= 8.24D+03 ExpMxC= 2.81D+02 IAcc=3 IRadAn=         5 AccDes= 0.00D+00
 Harris functional with IExCor= 1009 and IRadAn=       5 diagonalized for initial guess.
 HarFok:  IExCor= 1009 AccDes= 0.00D+00 IRadAn=         5 IDoV= 1 UseB2=F ITyADJ=14
 ICtDFT=  3500011 ScaDFX=  1.000000  1.000000  1.000000  1.000000
 FoFCou: FMM=F IPFlag=           0 FMFlag=      100000 FMFlg1=           0
         NFxFlg=           0 DoJE=T BraDBF=F KetDBF=T FulRan=T
         wScrn=  0.000000 ICntrl=     500 IOpCl=  0 I1Cent=   200000004 NGrid=           0
         NMat0=    1 NMatS0=      1 NMatT0=    0 NMatD0=    1 NMtDS0=    0 NMtDT0=    0
 Symmetry not used in FoFCou.
 SCF Done:  E(RM05) =  -45.8806300869     A.U. after   11 cycles
            NFock= 11  Conv=0.29D-08     -V/T= 2.0331

 **********************************************************************

            Population analysis using the SCF density.

 **********************************************************************

 Alpha  occ. eigenvalues --  -12.05221  -0.99440  -0.71164  -0.71150  -0.71145
 Alpha virt. eigenvalues --   -0.08944  -0.01733  -0.01726  -0.01713  -0.00502
 Alpha virt. eigenvalues --   -0.00348  -0.00335   0.03218   0.04003   0.04408
 Alpha virt. eigenvalues --    0.05535   0.05870   0.05952   0.07168   0.07781
 Alpha virt. eigenvalues --    0.08597   0.09457   0.10826   0.12436   0.14190
 Alpha virt. eigenvalues --    0.15939   0.17181   0.18124   0.20066   0.20241
 Alpha virt. eigenvalues --    0.20725   0.21417   0.22136   0.23106   0.23373
 Alpha virt. eigenvalues --    0.24331   0.24493   0.25196   0.25656   0.26652
 Alpha virt. eigenvalues --    0.27158   0.27650   0.28826   0.30068   0.30895
 Alpha virt. eigenvalues --    0.33687   0.34682   0.34832   0.36947   0.38077
 Alpha virt. eigenvalues --    0.38420   0.39469   0.40008   0.40254   0.41143
 Alpha virt. eigenvalues --    0.43277   0.43922   0.45211   0.46750   0.47409
 Alpha virt. eigenvalues --    0.50797   0.52236   0.52802   0.53334   0.55989
 Alpha virt. eigenvalues --    0.56526   0.58083   0.58287   0.59557   0.60717
 Alpha virt. eigenvalues --    0.61346   0.62934   0.64751   0.65228   0.65736
 Alpha virt. eigenvalues --    0.66909   0.68802   0.69794   0.72801   0.73322
 Alpha virt. eigenvalues --    0.76463   0.76913   0.77664   0.79882   0.80442
 Alpha virt. eigenvalues --    0.81453   0.84532   0.85688   0.87354   0.88610
 Alpha virt. eigenvalues --    0.90062   0.90532   0.91660   0.92864   0.93477
 Alpha virt. eigenvalues --    0.95107   0.96938   0.99031   1.00012   1.01623
 Alpha virt. eigenvalues --    1.02347   1.03976   1.04390   1.06194   1.07239
 Alpha virt. eigenvalues --    1.08914   1.10149   1.13505   1.14502   1.15323
 Alpha virt. eigenvalues --    1.16857   1.17688   1.18781   1.21029   1.21659
 Alpha virt. eigenvalues --    1.23164   1.24168   1.24930   1.25938   1.26778
 Alpha virt. eigenvalues --    1.27298   1.30528   1.31367   1.32204   1.32421
 Alpha virt. eigenvalues --    1.35227   1.36273   1.37240   1.38696   1.42773
 Alpha virt. eigenvalues --    1.43278   1.46682   1.48547   1.50154   1.51301
 Alpha virt. eigenvalues --    1.54423   1.56731   1.58329   1.59891   1.61823
 Alpha virt. eigenvalues --    1.65731   1.70328   1.72568   1.74715   1.75989
 Alpha virt. eigenvalues --    1.78795   1.81470   1.83488   1.85288   1.86386
 Alpha virt. eigenvalues --    1.90956   1.91335   1.93826   1.98248   1.99939
 Alpha virt. eigenvalues --    2.03789   2.04714   2.06965   2.08626   2.09280
 Alpha virt. eigenvalues --    2.13995   2.28274   2.30222   2.32855   2.39121
 Alpha virt. eigenvalues --    2.41455   2.43219   2.46008   2.54608   2.55936
 Alpha virt. eigenvalues --    2.65293   2.66348   2.68489   2.86176   2.94837
 Alpha virt. eigenvalues --    3.00884   3.02928   3.05930   3.07660   3.09843
 Alpha virt. eigenvalues --    3.15641   3.20932   3.22794   3.26272   3.29378
 Alpha virt. eigenvalues --    3.33484   3.45906   3.47544   3.49305   3.51577
 Alpha virt. eigenvalues --    3.53577   3.54403   3.59311   3.61038   3.61972
 Alpha virt. eigenvalues --    3.80387   3.87486   3.90077   3.92019   3.95113
 Alpha virt. eigenvalues --    3.96179   3.99201   4.02651   4.04039   4.05334
 Alpha virt. eigenvalues --    4.07234   4.08178   4.11870   4.14305   4.16968
 Alpha virt. eigenvalues --    4.19767   4.21385   4.23117   4.23915   4.30078
 Alpha virt. eigenvalues --    4.31332   4.35814   4.37707   4.38903   4.42802
 Alpha virt. eigenvalues --    4.45014   4.46539   4.50654   4.52424   4.56723
 Alpha virt. eigenvalues --    4.57971   4.60406   4.61403   4.65460   4.73680
 Alpha virt. eigenvalues --    4.79954   4.83785   4.84798   4.88900   4.89502
 Alpha virt. eigenvalues --    4.90506   4.95421   4.97823   5.02371   5.06654
 Alpha virt. eigenvalues --    5.12364   5.15686   5.17798   5.19351   5.20378
 Alpha virt. eigenvalues --    5.27213   5.28648   5.32485   5.36876   5.41654
 Alpha virt. eigenvalues --    5.44669   5.45829   5.47759   5.60209   5.65034
 Alpha virt. eigenvalues --    5.67334   5.73474   5.81408   6.08803   6.11120
 Alpha virt. eigenvalues --    6.16543   6.19058   6.26084   6.78386   6.78888
 Alpha virt. eigenvalues --    6.88584   6.95839   7.64220   7.66663   7.77347
 Alpha virt. eigenvalues --    8.01591   8.04374   8.19116  10.42944  15.38820
 Alpha virt. eigenvalues --   53.70564
          Condensed to atoms (all electrons):
 Mulliken charges:
               1
     1  C   -0.032678
     2  H   -0.000071
     3  H   -0.309380
     4  H    0.010464
     5  H   -0.012214
     6  C    0.014155
     7  H    1.181734
     8  H   -0.105379
     9  H   -0.611696
    10  H   -0.134934
 Sum of Mulliken charges =  -0.00000
 Mulliken charges with hydrogens summed into heavy atoms:
               1
     1  C   -0.343880
     6  C    0.343880
 Electronic spatial extent (au):  <R**2>=            405.2567
 Charge=             -0.0000 electrons
 Dipole moment (field-independent basis, Debye):
    X=              0.0008    Y=             -0.0004    Z=             -0.0001  Tot=              0.0009

 Test job not archived.
 1\1\GINC-CHIMERA-NODE14\SP\RM05\Gen\C2H8\CONNORNM\08-Dec-2018\0\\#T M0
 5/Gen test Massage SCF=(tight,maxcyc=40)\\M05 opt\\0,1\C,0,0.,0.,0.\H,
 0,0.9988569,0.,-0.47777698\H,0,0.0642492,0.49236878,0.98966205\H,0,-0.
 71554703,0.55100048,-0.64060665\H,0,-0.34755907,-1.04336926,0.12872157
 \C,0,0.,0.,3.21740611\H,0,0.00334602,0.6865283,2.34869807\H,0,0.562371
 59,-0.91936099,2.96343857\H,0,0.47817888,0.49785879,4.08312404\H,0,-1.
 0438965,-0.26502609,3.47436375\\Version=AS64L-G09RevD.01\HF=-45.880630
 1\RMSD=2.944e-09\Dipole=0.0003198,-0.0001646,-0.0000337\Quadrupole=-0.
 0000346,-0.000483,0.0005175,-0.000018,0.0013811,0.0002652\PG=C01 [X(C2
 H8)]\\@


 You don't have to suffer to be a poet.
 Adolescence is enough suffering for anyone.
                             -- John Ciardi
 Job cpu time:       0 days  0 hours 19 minutes 12.7 seconds.
 File lengths (MBytes):  RWF=     41 Int=      0 D2E=      0 Chk=      4 Scr=      1
 Normal termination of Gaussian 09 at Sat Dec  8 13:29:10 2018.
