 Entering Gaussian System, Link 0=/data/szalewicgrp/connornm/opt/Gaussian/g09-M05-par/g09/g09
 AtFile(1): aug-cc-pVTZ.gbs
 Initial command:
 /data/szalewicgrp/connornm/opt/Gaussian/g09-M05-par/g09/l1.exe "/scratch/local/Gau-46796.inp" -scrdir="/scratch/local/"
 Entering Link 1 = /data/szalewicgrp/connornm/opt/Gaussian/g09-M05-par/g09/l1.exe PID=     46797.
  
 Copyright (c) 1988,1990,1992,1993,1995,1998,2003,2009,2013,
            Gaussian, Inc.  All Rights Reserved.
  
 This is part of the Gaussian(R) 09 program.  It is based on
 the Gaussian(R) 03 system (copyright 2003, Gaussian, Inc.),
 the Gaussian(R) 98 system (copyright 1998, Gaussian, Inc.),
 the Gaussian(R) 94 system (copyright 1995, Gaussian, Inc.),
 the Gaussian 92(TM) system (copyright 1992, Gaussian, Inc.),
 the Gaussian 90(TM) system (copyright 1990, Gaussian, Inc.),
 the Gaussian 88(TM) system (copyright 1988, Gaussian, Inc.),
 the Gaussian 86(TM) system (copyright 1986, Carnegie Mellon
 University), and the Gaussian 82(TM) system (copyright 1983,
 Carnegie Mellon University). Gaussian is a federally registered
 trademark of Gaussian, Inc.
  
 This software contains proprietary and confidential information,
 including trade secrets, belonging to Gaussian, Inc.
  
 This software is provided under written license and may be
 used, copied, transmitted, or stored only in accord with that
 written license.
  
 The following legend is applicable only to US Government
 contracts under FAR:
  
                    RESTRICTED RIGHTS LEGEND
  
 Use, reproduction and disclosure by the US Government is
 subject to restrictions as set forth in subparagraphs (a)
 and (c) of the Commercial Computer Software - Restricted
 Rights clause in FAR 52.227-19.
  
 Gaussian, Inc.
 340 Quinnipiac St., Bldg. 40, Wallingford CT 06492
  
  
 ---------------------------------------------------------------
 Warning -- This program may not be used in any manner that
 competes with the business of Gaussian, Inc. or will provide
 assistance to any competitor of Gaussian, Inc.  The licensee
 of this program is prohibited from giving any competitor of
 Gaussian, Inc. access to this program.  By using this program,
 the user acknowledges that Gaussian, Inc. is engaged in the
 business of creating and licensing software in the field of
 computational chemistry and represents and warrants to the
 licensee that it is not a competitor of Gaussian, Inc. and that
 it will not use this program in any manner prohibited above.
 ---------------------------------------------------------------
  

 Cite this work as:
 Gaussian 09, Revision D.01,
 M. J. Frisch, G. W. Trucks, H. B. Schlegel, G. E. Scuseria, 
 M. A. Robb, J. R. Cheeseman, G. Scalmani, V. Barone, B. Mennucci, 
 G. A. Petersson, H. Nakatsuji, M. Caricato, X. Li, H. P. Hratchian, 
 A. F. Izmaylov, J. Bloino, G. Zheng, J. L. Sonnenberg, M. Hada, 
 M. Ehara, K. Toyota, R. Fukuda, J. Hasegawa, M. Ishida, T. Nakajima, 
 Y. Honda, O. Kitao, H. Nakai, T. Vreven, J. A. Montgomery, Jr., 
 J. E. Peralta, F. Ogliaro, M. Bearpark, J. J. Heyd, E. Brothers, 
 K. N. Kudin, V. N. Staroverov, T. Keith, R. Kobayashi, J. Normand, 
 K. Raghavachari, A. Rendell, J. C. Burant, S. S. Iyengar, J. Tomasi, 
 M. Cossi, N. Rega, J. M. Millam, M. Klene, J. E. Knox, J. B. Cross, 
 V. Bakken, C. Adamo, J. Jaramillo, R. Gomperts, R. E. Stratmann, 
 O. Yazyev, A. J. Austin, R. Cammi, C. Pomelli, J. W. Ochterski, 
 R. L. Martin, K. Morokuma, V. G. Zakrzewski, G. A. Voth, 
 P. Salvador, J. J. Dannenberg, S. Dapprich, A. D. Daniels, 
 O. Farkas, J. B. Foresman, J. V. Ortiz, J. Cioslowski, 
 and D. J. Fox, Gaussian, Inc., Wallingford CT, 2013.
 
 ******************************************
 Gaussian 09:  AS64L-G09RevD.01 24-Apr-2013
                 7-Dec-2018 
 ******************************************
 %Chk=CH400036
 %Mem=2GB
 %NProcShared=16
 Will use up to   16 processors via shared memory.
 ---------------------------------------------
 #T M05/Gen test Massage SCF=(tight,maxcyc=40)
 ---------------------------------------------
 -------
 M05 opt
 -------
 Symbolic Z-matrix:
 Charge =  0 Multiplicity = 1
 6-Bq                  0.        0.        0. 
 1-Bq                  0.8068    0.       -0.75832 
 1-Bq                  0.23249  -0.74414   0.78625 
 1-Bq                 -0.07828   1.00612   0.45562 
 1-Bq                 -0.96101  -0.26198  -0.48355 
 6                     0.        0.        2.50094 
 1                    -1.02072  -0.29776   2.19199 
 1                     0.61033  -0.9062    2.68064 
 1                     0.46602   0.606     1.69996 
 1                    -0.05563   0.59796   3.43118 
 
                    Distance matrix (angstroms):
                    1          2          3          4          5
     1  C    0.000000
     2  H    1.107243   0.000000
     3  H    1.107243   1.808119   0.000000
     4  H    1.107243   1.808119   1.808119   0.000000
     5  H    1.107243   1.808119   1.808119   1.808119   0.000000
     6  C    2.500941   3.357638   1.883600   2.280735   3.146320
     7  H    2.436258   3.483225   1.935428   2.367127   2.676441
     8  H    2.894738   3.561775   1.938484   3.013611   3.591124
     9  H    1.863943   2.554707   1.646901   1.415894   2.749093
    10  H    3.483334   4.318941   2.979909   3.003509   4.109044
                    6          7          8          9         10
     6  C    0.000000
     7  H    1.107243   0.000000
     8  H    1.107242   1.808119   0.000000
     9  H    1.107243   1.808119   1.808119   0.000000
    10  H    1.107242   1.808119   1.808119   1.808119   0.000000
 Symmetry turned off by external request.
 This structure is nearly, but not quite of a higher symmetry.
 Consider Symm=Loose if the higher symmetry is desired.
 Framework group  C1[X(C2H8)]
 Deg. of freedom    24
 Rotational constants (GHZ):     76.6916054      8.9092367      8.9092367
   276 basis functions,   360 primitive gaussians,   310 cartesian basis functions
     5 alpha electrons        5 beta electrons
       nuclear repulsion energy        13.2261669950 Hartrees.
 IMHF & INEx in M05                  614413                  385587
 NAtoms=   10 NActive=   10 NUniq=   10 SFac= 1.00D+00 NAtFMM=   60 NAOKFM=F Big=F
 ExpMin= 2.53D-02 ExpMax= 8.24D+03 ExpMxC= 2.81D+02 IAcc=3 IRadAn=         5 AccDes= 0.00D+00
 Harris functional with IExCor= 1009 and IRadAn=       5 diagonalized for initial guess.
 HarFok:  IExCor= 1009 AccDes= 0.00D+00 IRadAn=         5 IDoV= 1 UseB2=F ITyADJ=14
 ICtDFT=  3500011 ScaDFX=  1.000000  1.000000  1.000000  1.000000
 FoFCou: FMM=F IPFlag=           0 FMFlag=      100000 FMFlg1=           0
         NFxFlg=           0 DoJE=T BraDBF=F KetDBF=T FulRan=T
         wScrn=  0.000000 ICntrl=     500 IOpCl=  0 I1Cent=   200000004 NGrid=           0
         NMat0=    1 NMatS0=      1 NMatT0=    0 NMatD0=    1 NMtDS0=    0 NMtDT0=    0
 Symmetry not used in FoFCou.
 SCF Done:  E(RM05) =  -40.9123422674     A.U. after    7 cycles
            NFock=  7  Conv=0.77D-08     -V/T= 2.0126

 **********************************************************************

            Population analysis using the SCF density.

 **********************************************************************

 Alpha  occ. eigenvalues --  -10.74533  -0.82770  -0.48756  -0.48753  -0.48753
 Alpha virt. eigenvalues --   -0.00124   0.02465   0.02712   0.02777   0.04988
 Alpha virt. eigenvalues --    0.05301   0.05753   0.06376   0.07988   0.09447
 Alpha virt. eigenvalues --    0.10394   0.10535   0.10927   0.11774   0.12580
 Alpha virt. eigenvalues --    0.12810   0.15935   0.16129   0.16438   0.20409
 Alpha virt. eigenvalues --    0.22146   0.22705   0.23380   0.24978   0.26148
 Alpha virt. eigenvalues --    0.27015   0.27400   0.28468   0.28863   0.29747
 Alpha virt. eigenvalues --    0.30588   0.30961   0.31746   0.32755   0.33570
 Alpha virt. eigenvalues --    0.33986   0.34837   0.35695   0.36509   0.37058
 Alpha virt. eigenvalues --    0.38407   0.39699   0.41226   0.42544   0.42757
 Alpha virt. eigenvalues --    0.44095   0.45686   0.46214   0.47110   0.49042
 Alpha virt. eigenvalues --    0.50352   0.50968   0.51413   0.54227   0.55062
 Alpha virt. eigenvalues --    0.56013   0.56333   0.56637   0.58968   0.61956
 Alpha virt. eigenvalues --    0.64363   0.66850   0.67835   0.69096   0.69962
 Alpha virt. eigenvalues --    0.73527   0.74716   0.74963   0.77390   0.79262
 Alpha virt. eigenvalues --    0.79595   0.81830   0.83855   0.84121   0.85133
 Alpha virt. eigenvalues --    0.87150   0.87554   0.91435   0.93103   0.94036
 Alpha virt. eigenvalues --    0.95136   0.96441   0.98070   0.99166   1.00799
 Alpha virt. eigenvalues --    1.01015   1.01379   1.04253   1.04376   1.05380
 Alpha virt. eigenvalues --    1.06211   1.07244   1.08802   1.09236   1.10207
 Alpha virt. eigenvalues --    1.11514   1.12406   1.14192   1.15220   1.17346
 Alpha virt. eigenvalues --    1.20159   1.21878   1.23433   1.25725   1.26538
 Alpha virt. eigenvalues --    1.27594   1.28361   1.30986   1.31300   1.32676
 Alpha virt. eigenvalues --    1.35475   1.37983   1.39567   1.40499   1.41876
 Alpha virt. eigenvalues --    1.45246   1.46452   1.47117   1.48436   1.50008
 Alpha virt. eigenvalues --    1.52714   1.55071   1.57547   1.58269   1.60193
 Alpha virt. eigenvalues --    1.64433   1.64763   1.67445   1.67857   1.71581
 Alpha virt. eigenvalues --    1.73008   1.76318   1.77134   1.80181   1.81504
 Alpha virt. eigenvalues --    1.82381   1.84789   1.85243   1.89203   1.89724
 Alpha virt. eigenvalues --    1.91058   1.94911   1.97178   1.98132   2.00522
 Alpha virt. eigenvalues --    2.01833   2.03762   2.04652   2.05838   2.08764
 Alpha virt. eigenvalues --    2.10170   2.12494   2.13828   2.20892   2.25366
 Alpha virt. eigenvalues --    2.28365   2.34827   2.39231   2.42768   2.45649
 Alpha virt. eigenvalues --    2.48882   2.54176   2.64435   2.65371   2.71029
 Alpha virt. eigenvalues --    2.87717   2.98451   3.03027   3.05703   3.15538
 Alpha virt. eigenvalues --    3.26843   3.30530   3.31993   3.37565   3.39066
 Alpha virt. eigenvalues --    3.42840   3.48909   3.51596   3.60018   3.60553
 Alpha virt. eigenvalues --    3.63065   3.72836   3.74813   3.77331   3.80985
 Alpha virt. eigenvalues --    3.83945   3.86060   3.86637   3.87059   3.89890
 Alpha virt. eigenvalues --    3.99336   4.00121   4.02755   4.06266   4.08056
 Alpha virt. eigenvalues --    4.12549   4.15320   4.16139   4.22092   4.23970
 Alpha virt. eigenvalues --    4.29195   4.29350   4.33111   4.35997   4.37565
 Alpha virt. eigenvalues --    4.39090   4.42949   4.45028   4.46543   4.48197
 Alpha virt. eigenvalues --    4.50471   4.51374   4.53301   4.57170   4.57982
 Alpha virt. eigenvalues --    4.60203   4.67059   4.69589   4.75909   4.80103
 Alpha virt. eigenvalues --    4.82566   4.87627   4.91203   4.93712   4.97648
 Alpha virt. eigenvalues --    5.02333   5.03717   5.09680   5.14213   5.16688
 Alpha virt. eigenvalues --    5.18415   5.19408   5.21349   5.24018   5.27742
 Alpha virt. eigenvalues --    5.31930   5.32311   5.33743   5.39922   5.43433
 Alpha virt. eigenvalues --    5.45882   5.48337   5.52472   5.55430   5.60912
 Alpha virt. eigenvalues --    5.67002   5.72935   5.77330   5.89113   5.93182
 Alpha virt. eigenvalues --    6.06042   6.11928   6.12130   6.14813   6.15496
 Alpha virt. eigenvalues --    6.20004   6.26995   6.32095   6.77608   6.83454
 Alpha virt. eigenvalues --    6.87853   7.23055   7.55873   7.60538   7.62290
 Alpha virt. eigenvalues --    8.03028   8.11847   8.15963  10.55181  17.58266
 Alpha virt. eigenvalues --   53.94915
          Condensed to atoms (all electrons):
 Mulliken charges:
               1
     1  C   -0.052506
     2  H   -0.000634
     3  H    0.046781
     4  H    0.034484
     5  H    0.005861
     6  C   -2.115442
     7  H    0.490713
     8  H    0.486915
     9  H    0.701477
    10  H    0.402352
 Sum of Mulliken charges =  -0.00000
 Mulliken charges with hydrogens summed into heavy atoms:
               1
     1  C    0.033985
     6  C   -0.033985
 Electronic spatial extent (au):  <R**2>=            259.9013
 Charge=             -0.0000 electrons
 Dipole moment (field-independent basis, Debye):
    X=             -0.0000    Y=              0.0000    Z=             -0.0001  Tot=              0.0002

 Test job not archived.
 1\1\GINC-CHIMERA-NODE15\SP\RM05\Gen\C2H8\CONNORNM\07-Dec-2018\0\\#T M0
 5/Gen test Massage SCF=(tight,maxcyc=40)\\M05 opt\\0,1\C,0,0.,0.,0.\H,
 0,0.80680399,0.,-0.75832268\H,0,0.23248633,-0.74413946,0.78625221\H,0,
 -0.07828181,1.0061173,0.45561595\H,0,-0.9610085,-0.26197784,-0.4835454
 8\C,0,0.,0.,2.50094091\H,0,-1.02072168,-0.29776239,2.19198983\H,0,0.61
 03291,-0.90619735,2.68063706\H,0,0.46602434,0.60600172,1.69996076\H,0,
 -0.05563176,0.59795801,3.43117597\\Version=AS64L-G09RevD.01\HF=-40.912
 3423\RMSD=7.703e-09\Dipole=-0.0000024,0.000001,-0.000059\Quadrupole=0.
 0000867,0.0002558,-0.0003425,0.0006627,0.0002108,-0.0002385\PG=C01 [X(
 C2H8)]\\@


 Just remember, when you're over the hill, you begin to pick up speed.
 -- Charles Schulz
 Job cpu time:       0 days  0 hours 13 minutes 32.7 seconds.
 File lengths (MBytes):  RWF=     41 Int=      0 D2E=      0 Chk=      4 Scr=      1
 Normal termination of Gaussian 09 at Fri Dec  7 14:03:03 2018.
