 Entering Gaussian System, Link 0=/data/szalewicgrp/connornm/opt/Gaussian/g09-M05-par/g09/g09
 AtFile(1): aug-cc-pVTZ.gbs
 Initial command:
 /data/szalewicgrp/connornm/opt/Gaussian/g09-M05-par/g09/l1.exe "/scratch/local/Gau-48514.inp" -scrdir="/scratch/local/"
 Entering Link 1 = /data/szalewicgrp/connornm/opt/Gaussian/g09-M05-par/g09/l1.exe PID=     48515.
  
 Copyright (c) 1988,1990,1992,1993,1995,1998,2003,2009,2013,
            Gaussian, Inc.  All Rights Reserved.
  
 This is part of the Gaussian(R) 09 program.  It is based on
 the Gaussian(R) 03 system (copyright 2003, Gaussian, Inc.),
 the Gaussian(R) 98 system (copyright 1998, Gaussian, Inc.),
 the Gaussian(R) 94 system (copyright 1995, Gaussian, Inc.),
 the Gaussian 92(TM) system (copyright 1992, Gaussian, Inc.),
 the Gaussian 90(TM) system (copyright 1990, Gaussian, Inc.),
 the Gaussian 88(TM) system (copyright 1988, Gaussian, Inc.),
 the Gaussian 86(TM) system (copyright 1986, Carnegie Mellon
 University), and the Gaussian 82(TM) system (copyright 1983,
 Carnegie Mellon University). Gaussian is a federally registered
 trademark of Gaussian, Inc.
  
 This software contains proprietary and confidential information,
 including trade secrets, belonging to Gaussian, Inc.
  
 This software is provided under written license and may be
 used, copied, transmitted, or stored only in accord with that
 written license.
  
 The following legend is applicable only to US Government
 contracts under FAR:
  
                    RESTRICTED RIGHTS LEGEND
  
 Use, reproduction and disclosure by the US Government is
 subject to restrictions as set forth in subparagraphs (a)
 and (c) of the Commercial Computer Software - Restricted
 Rights clause in FAR 52.227-19.
  
 Gaussian, Inc.
 340 Quinnipiac St., Bldg. 40, Wallingford CT 06492
  
  
 ---------------------------------------------------------------
 Warning -- This program may not be used in any manner that
 competes with the business of Gaussian, Inc. or will provide
 assistance to any competitor of Gaussian, Inc.  The licensee
 of this program is prohibited from giving any competitor of
 Gaussian, Inc. access to this program.  By using this program,
 the user acknowledges that Gaussian, Inc. is engaged in the
 business of creating and licensing software in the field of
 computational chemistry and represents and warrants to the
 licensee that it is not a competitor of Gaussian, Inc. and that
 it will not use this program in any manner prohibited above.
 ---------------------------------------------------------------
  

 Cite this work as:
 Gaussian 09, Revision D.01,
 M. J. Frisch, G. W. Trucks, H. B. Schlegel, G. E. Scuseria, 
 M. A. Robb, J. R. Cheeseman, G. Scalmani, V. Barone, B. Mennucci, 
 G. A. Petersson, H. Nakatsuji, M. Caricato, X. Li, H. P. Hratchian, 
 A. F. Izmaylov, J. Bloino, G. Zheng, J. L. Sonnenberg, M. Hada, 
 M. Ehara, K. Toyota, R. Fukuda, J. Hasegawa, M. Ishida, T. Nakajima, 
 Y. Honda, O. Kitao, H. Nakai, T. Vreven, J. A. Montgomery, Jr., 
 J. E. Peralta, F. Ogliaro, M. Bearpark, J. J. Heyd, E. Brothers, 
 K. N. Kudin, V. N. Staroverov, T. Keith, R. Kobayashi, J. Normand, 
 K. Raghavachari, A. Rendell, J. C. Burant, S. S. Iyengar, J. Tomasi, 
 M. Cossi, N. Rega, J. M. Millam, M. Klene, J. E. Knox, J. B. Cross, 
 V. Bakken, C. Adamo, J. Jaramillo, R. Gomperts, R. E. Stratmann, 
 O. Yazyev, A. J. Austin, R. Cammi, C. Pomelli, J. W. Ochterski, 
 R. L. Martin, K. Morokuma, V. G. Zakrzewski, G. A. Voth, 
 P. Salvador, J. J. Dannenberg, S. Dapprich, A. D. Daniels, 
 O. Farkas, J. B. Foresman, J. V. Ortiz, J. Cioslowski, 
 and D. J. Fox, Gaussian, Inc., Wallingford CT, 2013.
 
 ******************************************
 Gaussian 09:  AS64L-G09RevD.01 24-Apr-2013
                 8-Dec-2018 
 ******************************************
 %Chk=CH400257
 %Mem=2GB
 %NProcShared=16
 Will use up to   16 processors via shared memory.
 ---------------------------------------------
 #T M05/Gen test Massage SCF=(tight,maxcyc=40)
 ---------------------------------------------
 -------
 M05 opt
 -------
 Symbolic Z-matrix:
 Charge =  0 Multiplicity = 1
 6-Bq                  0.        0.        0. 
 1-Bq                  0.64423   0.       -0.90053 
 1-Bq                 -0.99534   0.41059  -0.25825 
 1-Bq                 -0.11364  -1.03649   0.3725 
 1-Bq                  0.46476   0.6259    0.78628 
 6                     0.        0.        3.2519 
 1                     0.16063   1.09536   3.23287 
 1                    -0.59959  -0.30047   2.37088 
 1                     0.97875  -0.51707   3.22599 
 1                    -0.5398   -0.27783   4.17787 
 
                    Distance matrix (angstroms):
                    1          2          3          4          5
     1  C    0.000000
     2  H    1.107242   0.000000
     3  H    1.107243   1.808119   0.000000
     4  H    1.107243   1.808119   1.808119   0.000000
     5  H    1.107243   1.808119   1.808119   1.808119   0.000000
     6  C    3.251904   4.202113   3.671578   3.062382   2.585932
     7  H    3.417173   4.303335   3.740736   3.577950   2.509718
     8  H    2.463914   3.512764   2.752194   2.184354   2.121779
     9  H    3.410623   4.172227   4.110664   3.099281   2.742763
    10  H    4.221751   5.222000   4.512276   3.903588   3.650855
                    6          7          8          9         10
     6  C    0.000000
     7  H    1.107243   0.000000
     8  H    1.107242   1.808119   0.000000
     9  H    1.107243   1.808119   1.808119   0.000000
    10  H    1.107243   1.808119   1.808119   1.808119   0.000000
 Symmetry turned off by external request.
 This structure is nearly, but not quite of a higher symmetry.
 Consider Symm=Loose if the higher symmetry is desired.
 Framework group  C1[X(C2H8)]
 Deg. of freedom    24
 Rotational constants (GHZ):     76.6916054      5.5320767      5.5320767
   276 basis functions,   360 primitive gaussians,   310 cartesian basis functions
     5 alpha electrons        5 beta electrons
       nuclear repulsion energy        13.2261669954 Hartrees.
 IMHF & INEx in M05                  614413                  385587
 NAtoms=   10 NActive=   10 NUniq=   10 SFac= 1.00D+00 NAtFMM=   60 NAOKFM=F Big=F
 ExpMin= 2.53D-02 ExpMax= 8.24D+03 ExpMxC= 2.81D+02 IAcc=3 IRadAn=         5 AccDes= 0.00D+00
 Harris functional with IExCor= 1009 and IRadAn=       5 diagonalized for initial guess.
 HarFok:  IExCor= 1009 AccDes= 0.00D+00 IRadAn=         5 IDoV= 1 UseB2=F ITyADJ=14
 ICtDFT=  3500011 ScaDFX=  1.000000  1.000000  1.000000  1.000000
 FoFCou: FMM=F IPFlag=           0 FMFlag=      100000 FMFlg1=           0
         NFxFlg=           0 DoJE=T BraDBF=F KetDBF=T FulRan=T
         wScrn=  0.000000 ICntrl=     500 IOpCl=  0 I1Cent=   200000004 NGrid=           0
         NMat0=    1 NMatS0=      1 NMatT0=    0 NMatD0=    1 NMtDS0=    0 NMtDT0=    0
 Symmetry not used in FoFCou.
 SCF Done:  E(RM05) =  -40.9122667703     A.U. after    7 cycles
            NFock=  7  Conv=0.52D-08     -V/T= 2.0127

 **********************************************************************

            Population analysis using the SCF density.

 **********************************************************************

 Alpha  occ. eigenvalues --  -10.74530  -0.82768  -0.48753  -0.48751  -0.48751
 Alpha virt. eigenvalues --   -0.00124   0.02399   0.02735   0.02814   0.04553
 Alpha virt. eigenvalues --    0.05280   0.05408   0.07332   0.07937   0.08826
 Alpha virt. eigenvalues --    0.09728   0.10412   0.10875   0.11285   0.12339
 Alpha virt. eigenvalues --    0.13014   0.15515   0.15989   0.17136   0.19000
 Alpha virt. eigenvalues --    0.20682   0.22145   0.23015   0.25048   0.25732
 Alpha virt. eigenvalues --    0.26882   0.27574   0.28016   0.28298   0.28660
 Alpha virt. eigenvalues --    0.29163   0.30327   0.30756   0.31867   0.32067
 Alpha virt. eigenvalues --    0.32906   0.34293   0.35145   0.36139   0.36321
 Alpha virt. eigenvalues --    0.37393   0.38455   0.38851   0.40279   0.41389
 Alpha virt. eigenvalues --    0.43146   0.43915   0.44873   0.45202   0.46454
 Alpha virt. eigenvalues --    0.47769   0.49101   0.50527   0.52196   0.53520
 Alpha virt. eigenvalues --    0.54133   0.56873   0.59183   0.59896   0.62714
 Alpha virt. eigenvalues --    0.63953   0.64612   0.65474   0.66187   0.69418
 Alpha virt. eigenvalues --    0.70777   0.73079   0.74722   0.77194   0.78210
 Alpha virt. eigenvalues --    0.78505   0.82310   0.83559   0.84942   0.85700
 Alpha virt. eigenvalues --    0.85897   0.89834   0.90375   0.91924   0.92467
 Alpha virt. eigenvalues --    0.93421   0.95152   0.96174   0.96512   0.97872
 Alpha virt. eigenvalues --    0.98412   1.00095   1.01319   1.01776   1.02884
 Alpha virt. eigenvalues --    1.03976   1.05152   1.05718   1.06597   1.07346
 Alpha virt. eigenvalues --    1.08596   1.10232   1.11260   1.11555   1.12717
 Alpha virt. eigenvalues --    1.13863   1.15306   1.16327   1.17115   1.18979
 Alpha virt. eigenvalues --    1.21091   1.23863   1.25351   1.28105   1.28427
 Alpha virt. eigenvalues --    1.30965   1.32330   1.33723   1.35492   1.36242
 Alpha virt. eigenvalues --    1.37398   1.40504   1.42276   1.44953   1.45421
 Alpha virt. eigenvalues --    1.46086   1.47184   1.49817   1.52013   1.52778
 Alpha virt. eigenvalues --    1.55238   1.58485   1.60171   1.63098   1.65378
 Alpha virt. eigenvalues --    1.67156   1.68903   1.69293   1.72610   1.74517
 Alpha virt. eigenvalues --    1.76867   1.78615   1.82260   1.85527   1.85946
 Alpha virt. eigenvalues --    1.86960   1.91552   1.92017   1.95899   1.96999
 Alpha virt. eigenvalues --    1.98000   1.99077   2.00188   2.02299   2.02771
 Alpha virt. eigenvalues --    2.06575   2.07798   2.08962   2.11416   2.16637
 Alpha virt. eigenvalues --    2.25331   2.29505   2.30191   2.39412   2.44322
 Alpha virt. eigenvalues --    2.46870   2.50047   2.64830   2.67651   2.70908
 Alpha virt. eigenvalues --    2.80264   2.84900   2.92398   2.97023   2.98535
 Alpha virt. eigenvalues --    3.23281   3.25584   3.27363   3.28699   3.32633
 Alpha virt. eigenvalues --    3.33933   3.35464   3.40657   3.58375   3.61635
 Alpha virt. eigenvalues --    3.62571   3.71860   3.74136   3.75086   3.76348
 Alpha virt. eigenvalues --    3.77771   3.81220   3.82249   3.84860   3.86746
 Alpha virt. eigenvalues --    3.87271   3.96154   3.99364   4.03304   4.06497
 Alpha virt. eigenvalues --    4.09940   4.16054   4.19217   4.20606   4.21474
 Alpha virt. eigenvalues --    4.22744   4.24562   4.32057   4.32841   4.34483
 Alpha virt. eigenvalues --    4.36708   4.38378   4.39091   4.42255   4.46694
 Alpha virt. eigenvalues --    4.47595   4.47841   4.49729   4.52515   4.53744
 Alpha virt. eigenvalues --    4.54975   4.57053   4.59283   4.62063   4.64791
 Alpha virt. eigenvalues --    4.76067   4.76989   4.79796   4.83370   4.84752
 Alpha virt. eigenvalues --    4.85767   4.90215   4.93984   4.95279   5.10254
 Alpha virt. eigenvalues --    5.15246   5.16250   5.17381   5.20247   5.21738
 Alpha virt. eigenvalues --    5.24809   5.25258   5.29126   5.29461   5.33843
 Alpha virt. eigenvalues --    5.34164   5.38467   5.42235   5.47395   5.49827
 Alpha virt. eigenvalues --    5.53345   5.56277   5.60026   5.61630   5.68071
 Alpha virt. eigenvalues --    6.05942   6.08655   6.09877   6.10889   6.12811
 Alpha virt. eigenvalues --    6.17104   6.19449   6.20233   6.77678   6.79380
 Alpha virt. eigenvalues --    6.82531   6.96136   7.59818   7.61467   7.64867
 Alpha virt. eigenvalues --    8.00444   8.06315   8.09022  10.32625  17.01028
 Alpha virt. eigenvalues --   52.47021
          Condensed to atoms (all electrons):
 Mulliken charges:
               1
     1  C   -0.003059
     2  H   -0.006107
     3  H    0.004552
     4  H    0.017551
     5  H    0.001437
     6  C   -1.958168
     7  H    0.480855
     8  H    0.606585
     9  H    0.477847
    10  H    0.378507
 Sum of Mulliken charges =  -0.00000
 Mulliken charges with hydrogens summed into heavy atoms:
               1
     1  C    0.014374
     6  C   -0.014374
 Electronic spatial extent (au):  <R**2>=            414.1783
 Charge=              0.0000 electrons
 Dipole moment (field-independent basis, Debye):
    X=             -0.0001    Y=             -0.0001    Z=             -0.0001  Tot=              0.0002

 Test job not archived.
 1\1\GINC-CHIMERA-NODE62\SP\RM05\Gen\C2H8\CONNORNM\08-Dec-2018\0\\#T M0
 5/Gen test Massage SCF=(tight,maxcyc=40)\\M05 opt\\0,1\C,0,0.,0.,0.\H,
 0,0.6442264,0.,-0.90053223\H,0,-0.99534192,0.41059314,-0.25825123\H,0,
 -0.11364261,-1.03649085,0.3725024\H,0,0.46475812,0.62589771,0.78628106
 \C,0,0.,0.,3.25190421\H,0,0.16063186,1.09536343,3.23286945\H,0,-0.5995
 896,-0.30046541,2.37088276\H,0,0.97875343,-0.51706508,3.22599312\H,0,-
 0.53979568,-0.27783294,4.17787151\\Version=AS64L-G09RevD.01\HF=-40.912
 2668\RMSD=5.218e-09\Dipole=-0.0000488,-0.0000215,-0.0000501\Quadrupole
 =0.0007752,-0.0003411,-0.0004341,0.0006707,-0.0007124,-0.0001796\PG=C0
 1 [X(C2H8)]\\@


 THE REAL VOYAGE OF DISCOVERY CONSISTS NOT IN SEEKING NEW LANDSCAPES 
 BUT IN HAVING NEW EYES.
                                                    -- MARCEL PROUST
 Job cpu time:       0 days  0 hours 12 minutes 33.7 seconds.
 File lengths (MBytes):  RWF=     41 Int=      0 D2E=      0 Chk=      4 Scr=      1
 Normal termination of Gaussian 09 at Sat Dec  8 10:21:01 2018.
