 Entering Gaussian System, Link 0=/data/szalewicgrp/connornm/opt/Gaussian/g09-M05-par/g09/g09
 AtFile(1): aug-cc-pVTZ.gbs
 Initial command:
 /data/szalewicgrp/connornm/opt/Gaussian/g09-M05-par/g09/l1.exe "/scratch/local/Gau-10407.inp" -scrdir="/scratch/local/"
 Entering Link 1 = /data/szalewicgrp/connornm/opt/Gaussian/g09-M05-par/g09/l1.exe PID=     10408.
  
 Copyright (c) 1988,1990,1992,1993,1995,1998,2003,2009,2013,
            Gaussian, Inc.  All Rights Reserved.
  
 This is part of the Gaussian(R) 09 program.  It is based on
 the Gaussian(R) 03 system (copyright 2003, Gaussian, Inc.),
 the Gaussian(R) 98 system (copyright 1998, Gaussian, Inc.),
 the Gaussian(R) 94 system (copyright 1995, Gaussian, Inc.),
 the Gaussian 92(TM) system (copyright 1992, Gaussian, Inc.),
 the Gaussian 90(TM) system (copyright 1990, Gaussian, Inc.),
 the Gaussian 88(TM) system (copyright 1988, Gaussian, Inc.),
 the Gaussian 86(TM) system (copyright 1986, Carnegie Mellon
 University), and the Gaussian 82(TM) system (copyright 1983,
 Carnegie Mellon University). Gaussian is a federally registered
 trademark of Gaussian, Inc.
  
 This software contains proprietary and confidential information,
 including trade secrets, belonging to Gaussian, Inc.
  
 This software is provided under written license and may be
 used, copied, transmitted, or stored only in accord with that
 written license.
  
 The following legend is applicable only to US Government
 contracts under FAR:
  
                    RESTRICTED RIGHTS LEGEND
  
 Use, reproduction and disclosure by the US Government is
 subject to restrictions as set forth in subparagraphs (a)
 and (c) of the Commercial Computer Software - Restricted
 Rights clause in FAR 52.227-19.
  
 Gaussian, Inc.
 340 Quinnipiac St., Bldg. 40, Wallingford CT 06492
  
  
 ---------------------------------------------------------------
 Warning -- This program may not be used in any manner that
 competes with the business of Gaussian, Inc. or will provide
 assistance to any competitor of Gaussian, Inc.  The licensee
 of this program is prohibited from giving any competitor of
 Gaussian, Inc. access to this program.  By using this program,
 the user acknowledges that Gaussian, Inc. is engaged in the
 business of creating and licensing software in the field of
 computational chemistry and represents and warrants to the
 licensee that it is not a competitor of Gaussian, Inc. and that
 it will not use this program in any manner prohibited above.
 ---------------------------------------------------------------
  

 Cite this work as:
 Gaussian 09, Revision D.01,
 M. J. Frisch, G. W. Trucks, H. B. Schlegel, G. E. Scuseria, 
 M. A. Robb, J. R. Cheeseman, G. Scalmani, V. Barone, B. Mennucci, 
 G. A. Petersson, H. Nakatsuji, M. Caricato, X. Li, H. P. Hratchian, 
 A. F. Izmaylov, J. Bloino, G. Zheng, J. L. Sonnenberg, M. Hada, 
 M. Ehara, K. Toyota, R. Fukuda, J. Hasegawa, M. Ishida, T. Nakajima, 
 Y. Honda, O. Kitao, H. Nakai, T. Vreven, J. A. Montgomery, Jr., 
 J. E. Peralta, F. Ogliaro, M. Bearpark, J. J. Heyd, E. Brothers, 
 K. N. Kudin, V. N. Staroverov, T. Keith, R. Kobayashi, J. Normand, 
 K. Raghavachari, A. Rendell, J. C. Burant, S. S. Iyengar, J. Tomasi, 
 M. Cossi, N. Rega, J. M. Millam, M. Klene, J. E. Knox, J. B. Cross, 
 V. Bakken, C. Adamo, J. Jaramillo, R. Gomperts, R. E. Stratmann, 
 O. Yazyev, A. J. Austin, R. Cammi, C. Pomelli, J. W. Ochterski, 
 R. L. Martin, K. Morokuma, V. G. Zakrzewski, G. A. Voth, 
 P. Salvador, J. J. Dannenberg, S. Dapprich, A. D. Daniels, 
 O. Farkas, J. B. Foresman, J. V. Ortiz, J. Cioslowski, 
 and D. J. Fox, Gaussian, Inc., Wallingford CT, 2013.
 
 ******************************************
 Gaussian 09:  AS64L-G09RevD.01 24-Apr-2013
                 8-Dec-2018 
 ******************************************
 %Chk=CH400232
 %Mem=2GB
 %NProcShared=16
 Will use up to   16 processors via shared memory.
 ---------------------------------------------
 #T M05/Gen test Massage SCF=(tight,maxcyc=40)
 ---------------------------------------------
 -------
 M05 opt
 -------
 Symbolic Z-matrix:
 Charge =  0 Multiplicity = 1
 6-Bq                  0.        0.        0. 
 1-Bq                  0.66147   0.       -0.88795 
 1-Bq                  0.33977  -0.77568   0.71334 
 1-Bq                  0.03809   0.99287   0.48861 
 1-Bq                 -1.03933  -0.21719  -0.31401 
 6                     0.        0.        2.92049 
 1                    -0.71316  -0.13591   3.75651 
 1                     0.12069  -0.95815   2.37886 
 1                    -0.38787   0.77023   2.22602 
 1                     0.98033   0.32383   3.32058 
 
                    Distance matrix (angstroms):
                    1          2          3          4          5
     1  C    0.000000
     2  H    1.107243   0.000000
     3  H    1.107243   1.808119   0.000000
     4  H    1.107243   1.808119   1.808119   0.000000
     5  H    1.107242   1.808119   1.808119   1.808119   0.000000
     6  C    2.920491   3.865453   2.364028   2.627030   3.404316
     7  H    3.826016   4.845512   3.283110   3.538030   4.084369
     8  H    2.567414   3.447105   1.689748   2.717789   3.024276
     9  H    2.387223   3.375071   2.281988   1.802661   2.801985
    10  H    3.477379   4.232993   2.901195   3.058670   4.193086
                    6          7          8          9         10
     6  C    0.000000
     7  H    1.107243   0.000000
     8  H    1.107243   1.808119   0.000000
     9  H    1.107243   1.808119   1.808119   0.000000
    10  H    1.107243   1.808119   1.808119   1.808119   0.000000
 Symmetry turned off by external request.
 This structure is nearly, but not quite of a higher symmetry.
 Consider Symm=Loose if the higher symmetry is desired.
 Framework group  C1[X(C2H8)]
 Deg. of freedom    24
 Rotational constants (GHZ):     76.6916053      6.7422189      6.7422189
   276 basis functions,   360 primitive gaussians,   310 cartesian basis functions
     5 alpha electrons        5 beta electrons
       nuclear repulsion energy        13.2261669811 Hartrees.
 IMHF & INEx in M05                  614413                  385587
 NAtoms=   10 NActive=   10 NUniq=   10 SFac= 1.00D+00 NAtFMM=   60 NAOKFM=F Big=F
 ExpMin= 2.53D-02 ExpMax= 8.24D+03 ExpMxC= 2.81D+02 IAcc=3 IRadAn=         5 AccDes= 0.00D+00
 Harris functional with IExCor= 1009 and IRadAn=       5 diagonalized for initial guess.
 HarFok:  IExCor= 1009 AccDes= 0.00D+00 IRadAn=         5 IDoV= 1 UseB2=F ITyADJ=14
 ICtDFT=  3500011 ScaDFX=  1.000000  1.000000  1.000000  1.000000
 FoFCou: FMM=F IPFlag=           0 FMFlag=      100000 FMFlg1=           0
         NFxFlg=           0 DoJE=T BraDBF=F KetDBF=T FulRan=T
         wScrn=  0.000000 ICntrl=     500 IOpCl=  0 I1Cent=   200000004 NGrid=           0
         NMat0=    1 NMatS0=      1 NMatT0=    0 NMatD0=    1 NMtDS0=    0 NMtDT0=    0
 Symmetry not used in FoFCou.
 SCF Done:  E(RM05) =  -44.2935993594     A.U. after   10 cycles
            NFock= 10  Conv=0.13D-08     -V/T= 2.0244

 **********************************************************************

            Population analysis using the SCF density.

 **********************************************************************

 Alpha  occ. eigenvalues --  -11.62239  -0.92994  -0.62337  -0.62335  -0.62331
 Alpha virt. eigenvalues --   -0.06454  -0.00191  -0.00139  -0.00097   0.02289
 Alpha virt. eigenvalues --    0.02561   0.02596   0.03831   0.04831   0.05256
 Alpha virt. eigenvalues --    0.05816   0.07033   0.07880   0.08349   0.09199
 Alpha virt. eigenvalues --    0.09772   0.10740   0.11341   0.13077   0.13672
 Alpha virt. eigenvalues --    0.17370   0.19200   0.19492   0.20325   0.21041
 Alpha virt. eigenvalues --    0.21760   0.22589   0.22980   0.23426   0.24262
 Alpha virt. eigenvalues --    0.25727   0.26488   0.27074   0.27820   0.28248
 Alpha virt. eigenvalues --    0.29172   0.29763   0.30817   0.31979   0.32270
 Alpha virt. eigenvalues --    0.33603   0.34660   0.37015   0.37306   0.38662
 Alpha virt. eigenvalues --    0.40502   0.41139   0.41710   0.42586   0.43982
 Alpha virt. eigenvalues --    0.44407   0.45333   0.46784   0.47569   0.49469
 Alpha virt. eigenvalues --    0.52051   0.52837   0.54203   0.54275   0.56806
 Alpha virt. eigenvalues --    0.57703   0.59777   0.60918   0.61597   0.62867
 Alpha virt. eigenvalues --    0.63465   0.64823   0.64891   0.68452   0.69199
 Alpha virt. eigenvalues --    0.69672   0.71798   0.73843   0.76681   0.79411
 Alpha virt. eigenvalues --    0.79789   0.80920   0.82917   0.84005   0.84661
 Alpha virt. eigenvalues --    0.85434   0.86205   0.86883   0.91561   0.92592
 Alpha virt. eigenvalues --    0.93353   0.93816   0.94527   0.95846   0.95933
 Alpha virt. eigenvalues --    0.96861   0.99046   1.00776   1.01152   1.02063
 Alpha virt. eigenvalues --    1.04301   1.06447   1.07535   1.09022   1.09588
 Alpha virt. eigenvalues --    1.11084   1.12651   1.14061   1.15945   1.16756
 Alpha virt. eigenvalues --    1.19379   1.21574   1.22691   1.23311   1.24205
 Alpha virt. eigenvalues --    1.27875   1.29715   1.29915   1.30932   1.31901
 Alpha virt. eigenvalues --    1.33478   1.34070   1.35418   1.36528   1.37672
 Alpha virt. eigenvalues --    1.39091   1.39793   1.42439   1.44671   1.47190
 Alpha virt. eigenvalues --    1.49092   1.53102   1.55421   1.56582   1.57683
 Alpha virt. eigenvalues --    1.60934   1.62275   1.67369   1.68592   1.69357
 Alpha virt. eigenvalues --    1.70801   1.74063   1.76298   1.78511   1.80718
 Alpha virt. eigenvalues --    1.82967   1.83829   1.85825   1.87032   1.87572
 Alpha virt. eigenvalues --    1.92481   1.92772   1.93966   1.95756   1.97667
 Alpha virt. eigenvalues --    2.01255   2.03144   2.06875   2.09988   2.11358
 Alpha virt. eigenvalues --    2.13733   2.27034   2.30512   2.32467   2.36077
 Alpha virt. eigenvalues --    2.43963   2.45140   2.56905   2.63110   2.64211
 Alpha virt. eigenvalues --    2.65646   2.69624   2.73515   2.77797   2.90665
 Alpha virt. eigenvalues --    3.11302   3.12632   3.13553   3.16093   3.17993
 Alpha virt. eigenvalues --    3.23423   3.26591   3.34652   3.36716   3.38872
 Alpha virt. eigenvalues --    3.42352   3.56336   3.57839   3.59014   3.59216
 Alpha virt. eigenvalues --    3.62322   3.65849   3.66979   3.68502   3.76023
 Alpha virt. eigenvalues --    3.79557   3.90523   3.91272   3.97696   4.00486
 Alpha virt. eigenvalues --    4.00909   4.03770   4.06744   4.10127   4.12905
 Alpha virt. eigenvalues --    4.14751   4.16432   4.20157   4.20628   4.23137
 Alpha virt. eigenvalues --    4.25617   4.26201   4.26522   4.29311   4.32175
 Alpha virt. eigenvalues --    4.35531   4.38541   4.41507   4.44204   4.47758
 Alpha virt. eigenvalues --    4.49598   4.52636   4.54164   4.55045   4.58229
 Alpha virt. eigenvalues --    4.60994   4.66121   4.69461   4.74556   4.79309
 Alpha virt. eigenvalues --    4.81642   4.84893   4.86948   4.92019   4.97317
 Alpha virt. eigenvalues --    5.00191   5.00716   5.06675   5.08592   5.13237
 Alpha virt. eigenvalues --    5.15255   5.17901   5.20889   5.23880   5.28775
 Alpha virt. eigenvalues --    5.31307   5.32062   5.38064   5.40320   5.41470
 Alpha virt. eigenvalues --    5.44731   5.46016   5.46888   5.55601   5.66428
 Alpha virt. eigenvalues --    5.81534   5.84714   5.90016   6.05352   6.08850
 Alpha virt. eigenvalues --    6.09732   6.14194   6.17272   6.75551   6.77742
 Alpha virt. eigenvalues --    6.81373   6.90670   7.52761   7.59250   7.64999
 Alpha virt. eigenvalues --    8.01543   8.06933   8.10666  10.32386  15.90233
 Alpha virt. eigenvalues --   53.08854
          Condensed to atoms (all electrons):
 Mulliken charges:
               1
     1  C    0.075919
     2  H   -0.008682
     3  H   -0.029087
     4  H   -0.050106
     5  H    0.020210
     6  C   -1.038620
     7  H   -0.101103
     8  H    0.486408
     9  H    0.434881
    10  H    0.210179
 Sum of Mulliken charges =  -0.00000
 Mulliken charges with hydrogens summed into heavy atoms:
               1
     1  C    0.008254
     6  C   -0.008254
 Electronic spatial extent (au):  <R**2>=            340.9181
 Charge=             -0.0000 electrons
 Dipole moment (field-independent basis, Debye):
    X=              0.0002    Y=              0.0001    Z=             -0.0001  Tot=              0.0002

 Test job not archived.
 1\1\GINC-CHIMERA-NODE31\SP\RM05\Gen\C2H8\CONNORNM\08-Dec-2018\0\\#T M0
 5/Gen test Massage SCF=(tight,maxcyc=40)\\M05 opt\\0,1\C,0,0.,0.,0.\H,
 0,0.66146646,0.,-0.88794599\H,0,0.33977253,-0.7756818,0.71334307\H,0,0
 .03809422,0.99287171,0.48861084\H,0,-1.03933321,-0.21718991,-0.3140079
 2\C,0,0.,0.,2.92049077\H,0,-0.71315827,-0.13590834,3.75650522\H,0,0.12
 069468,-0.9581535,2.37886302\H,0,-0.38786596,0.77022712,2.22601533\H,0
 ,0.98032955,0.32383472,3.32057953\\Version=AS64L-G09RevD.01\HF=-44.293
 5994\RMSD=1.254e-09\Dipole=0.0000693,0.000033,-0.0000288\Quadrupole=-0
 .0003998,-0.0006039,0.0010038,-0.0000614,-0.000616,0.000472\PG=C01 [X(
 C2H8)]\\@


 IF OTHER PEOPLE ARE GOING TO TALK, CONVERSATION IS SIMPLY IMPOSSIBLE.

                                               -- WHISTLER'S PRINCIPLE
 Job cpu time:       0 days  0 hours 18 minutes 17.6 seconds.
 File lengths (MBytes):  RWF=     41 Int=      0 D2E=      0 Chk=      4 Scr=      1
 Normal termination of Gaussian 09 at Sat Dec  8 13:15:19 2018.
