 Entering Gaussian System, Link 0=/data/szalewicgrp/connornm/opt/Gaussian/g09-M05-par/g09/g09
 AtFile(1): aug-cc-pVTZ.gbs
 Initial command:
 /data/szalewicgrp/connornm/opt/Gaussian/g09-M05-par/g09/l1.exe "/scratch/local/Gau-10586.inp" -scrdir="/scratch/local/"
 Entering Link 1 = /data/szalewicgrp/connornm/opt/Gaussian/g09-M05-par/g09/l1.exe PID=     10587.
  
 Copyright (c) 1988,1990,1992,1993,1995,1998,2003,2009,2013,
            Gaussian, Inc.  All Rights Reserved.
  
 This is part of the Gaussian(R) 09 program.  It is based on
 the Gaussian(R) 03 system (copyright 2003, Gaussian, Inc.),
 the Gaussian(R) 98 system (copyright 1998, Gaussian, Inc.),
 the Gaussian(R) 94 system (copyright 1995, Gaussian, Inc.),
 the Gaussian 92(TM) system (copyright 1992, Gaussian, Inc.),
 the Gaussian 90(TM) system (copyright 1990, Gaussian, Inc.),
 the Gaussian 88(TM) system (copyright 1988, Gaussian, Inc.),
 the Gaussian 86(TM) system (copyright 1986, Carnegie Mellon
 University), and the Gaussian 82(TM) system (copyright 1983,
 Carnegie Mellon University). Gaussian is a federally registered
 trademark of Gaussian, Inc.
  
 This software contains proprietary and confidential information,
 including trade secrets, belonging to Gaussian, Inc.
  
 This software is provided under written license and may be
 used, copied, transmitted, or stored only in accord with that
 written license.
  
 The following legend is applicable only to US Government
 contracts under FAR:
  
                    RESTRICTED RIGHTS LEGEND
  
 Use, reproduction and disclosure by the US Government is
 subject to restrictions as set forth in subparagraphs (a)
 and (c) of the Commercial Computer Software - Restricted
 Rights clause in FAR 52.227-19.
  
 Gaussian, Inc.
 340 Quinnipiac St., Bldg. 40, Wallingford CT 06492
  
  
 ---------------------------------------------------------------
 Warning -- This program may not be used in any manner that
 competes with the business of Gaussian, Inc. or will provide
 assistance to any competitor of Gaussian, Inc.  The licensee
 of this program is prohibited from giving any competitor of
 Gaussian, Inc. access to this program.  By using this program,
 the user acknowledges that Gaussian, Inc. is engaged in the
 business of creating and licensing software in the field of
 computational chemistry and represents and warrants to the
 licensee that it is not a competitor of Gaussian, Inc. and that
 it will not use this program in any manner prohibited above.
 ---------------------------------------------------------------
  

 Cite this work as:
 Gaussian 09, Revision D.01,
 M. J. Frisch, G. W. Trucks, H. B. Schlegel, G. E. Scuseria, 
 M. A. Robb, J. R. Cheeseman, G. Scalmani, V. Barone, B. Mennucci, 
 G. A. Petersson, H. Nakatsuji, M. Caricato, X. Li, H. P. Hratchian, 
 A. F. Izmaylov, J. Bloino, G. Zheng, J. L. Sonnenberg, M. Hada, 
 M. Ehara, K. Toyota, R. Fukuda, J. Hasegawa, M. Ishida, T. Nakajima, 
 Y. Honda, O. Kitao, H. Nakai, T. Vreven, J. A. Montgomery, Jr., 
 J. E. Peralta, F. Ogliaro, M. Bearpark, J. J. Heyd, E. Brothers, 
 K. N. Kudin, V. N. Staroverov, T. Keith, R. Kobayashi, J. Normand, 
 K. Raghavachari, A. Rendell, J. C. Burant, S. S. Iyengar, J. Tomasi, 
 M. Cossi, N. Rega, J. M. Millam, M. Klene, J. E. Knox, J. B. Cross, 
 V. Bakken, C. Adamo, J. Jaramillo, R. Gomperts, R. E. Stratmann, 
 O. Yazyev, A. J. Austin, R. Cammi, C. Pomelli, J. W. Ochterski, 
 R. L. Martin, K. Morokuma, V. G. Zakrzewski, G. A. Voth, 
 P. Salvador, J. J. Dannenberg, S. Dapprich, A. D. Daniels, 
 O. Farkas, J. B. Foresman, J. V. Ortiz, J. Cioslowski, 
 and D. J. Fox, Gaussian, Inc., Wallingford CT, 2013.
 
 ******************************************
 Gaussian 09:  AS64L-G09RevD.01 24-Apr-2013
                 8-Dec-2018 
 ******************************************
 %Chk=CH400247
 %Mem=2GB
 %NProcShared=16
 Will use up to   16 processors via shared memory.
 ---------------------------------------------
 #T M05/Gen test Massage SCF=(tight,maxcyc=40)
 ---------------------------------------------
 -------
 M05 opt
 -------
 Symbolic Z-matrix:
 Charge =  0 Multiplicity = 1
 6-Bq                  0.        0.        0. 
 1-Bq                  0.84816   0.       -0.71177 
 1-Bq                  0.38526  -0.09984   1.03324 
 1-Bq                 -0.56113   0.94984  -0.09451 
 1-Bq                 -0.67229  -0.85     -0.22697 
 6                     0.        0.        4.91284 
 1                    -0.63382  -0.49905   5.67127 
 1                     0.73637  -0.72384   4.51311 
 1                    -0.63669   0.37279   4.08723 
 1                     0.53413   0.8501    5.37976 
 
                    Distance matrix (angstroms):
                    1          2          3          4          5
     1  C    0.000000
     2  H    1.107242   0.000000
     3  H    1.107242   1.808119   0.000000
     4  H    1.107243   1.808119   1.808119   0.000000
     5  H    1.107243   1.808119   1.808119   1.808119   0.000000
     6  C    4.912842   5.688198   3.899960   5.127434   5.252822
     7  H    5.728355   6.571791   4.765415   5.945476   5.908795
     8  H    4.629723   5.275960   3.552762   5.070978   4.946574
     9  H    4.153287   5.037273   3.254937   4.222036   4.484283
    10  H    5.472642   6.158572   4.451605   5.583650   5.981742
                    6          7          8          9         10
     6  C    0.000000
     7  H    1.107243   0.000000
     8  H    1.107242   1.808119   0.000000
     9  H    1.107242   1.808119   1.808119   0.000000
    10  H    1.107243   1.808119   1.808119   1.808119   0.000000
 Symmetry turned off by external request.
 This structure is nearly, but not quite of a higher symmetry.
 Consider Symm=Loose if the higher symmetry is desired.
 Framework group  C1[X(C2H8)]
 Deg. of freedom    24
 Rotational constants (GHZ):     76.6916057      2.5261929      2.5261929
   276 basis functions,   360 primitive gaussians,   310 cartesian basis functions
     5 alpha electrons        5 beta electrons
       nuclear repulsion energy        13.2261670042 Hartrees.
 IMHF & INEx in M05                  614413                  385587
 NAtoms=   10 NActive=   10 NUniq=   10 SFac= 1.00D+00 NAtFMM=   60 NAOKFM=F Big=F
 ExpMin= 2.53D-02 ExpMax= 8.24D+03 ExpMxC= 2.81D+02 IAcc=3 IRadAn=         5 AccDes= 0.00D+00
 Harris functional with IExCor= 1009 and IRadAn=       5 diagonalized for initial guess.
 HarFok:  IExCor= 1009 AccDes= 0.00D+00 IRadAn=         5 IDoV= 1 UseB2=F ITyADJ=14
 ICtDFT=  3500011 ScaDFX=  1.000000  1.000000  1.000000  1.000000
 FoFCou: FMM=F IPFlag=           0 FMFlag=      100000 FMFlg1=           0
         NFxFlg=           0 DoJE=T BraDBF=F KetDBF=T FulRan=T
         wScrn=  0.000000 ICntrl=     500 IOpCl=  0 I1Cent=   200000004 NGrid=           0
         NMat0=    1 NMatS0=      1 NMatT0=    0 NMatD0=    1 NMtDS0=    0 NMtDT0=    0
 Symmetry not used in FoFCou.
 SCF Done:  E(RM05) =  -44.2929911361     A.U. after   10 cycles
            NFock= 10  Conv=0.73D-09     -V/T= 2.0247

 **********************************************************************

            Population analysis using the SCF density.

 **********************************************************************

 Alpha  occ. eigenvalues --  -11.62240  -0.92992  -0.62331  -0.62330  -0.62330
 Alpha virt. eigenvalues --   -0.06500  -0.00204  -0.00154  -0.00140   0.02444
 Alpha virt. eigenvalues --    0.02682   0.02745   0.03175   0.04826   0.05073
 Alpha virt. eigenvalues --    0.05767   0.06692   0.07754   0.08566   0.09004
 Alpha virt. eigenvalues --    0.09108   0.10503   0.10959   0.11915   0.12540
 Alpha virt. eigenvalues --    0.14572   0.18707   0.19990   0.20563   0.21085
 Alpha virt. eigenvalues --    0.21244   0.22041   0.22276   0.23075   0.23501
 Alpha virt. eigenvalues --    0.24383   0.24643   0.25218   0.26038   0.27368
 Alpha virt. eigenvalues --    0.28217   0.28921   0.29003   0.29592   0.30392
 Alpha virt. eigenvalues --    0.30958   0.31534   0.33654   0.34377   0.35190
 Alpha virt. eigenvalues --    0.36062   0.36975   0.38019   0.39302   0.40863
 Alpha virt. eigenvalues --    0.41890   0.42051   0.43965   0.45458   0.46526
 Alpha virt. eigenvalues --    0.47583   0.49161   0.51610   0.52475   0.56062
 Alpha virt. eigenvalues --    0.56470   0.57636   0.59867   0.61566   0.61883
 Alpha virt. eigenvalues --    0.63465   0.65968   0.66153   0.66355   0.68196
 Alpha virt. eigenvalues --    0.69279   0.70428   0.74338   0.74762   0.75118
 Alpha virt. eigenvalues --    0.76389   0.77712   0.80226   0.81135   0.81584
 Alpha virt. eigenvalues --    0.82555   0.84272   0.87607   0.88986   0.89727
 Alpha virt. eigenvalues --    0.90712   0.91426   0.92869   0.94220   0.94699
 Alpha virt. eigenvalues --    0.95140   0.96072   0.97086   0.98755   0.99404
 Alpha virt. eigenvalues --    1.00386   1.01781   1.02692   1.03363   1.04654
 Alpha virt. eigenvalues --    1.05469   1.06498   1.07612   1.08149   1.08643
 Alpha virt. eigenvalues --    1.09959   1.10890   1.14386   1.14844   1.17362
 Alpha virt. eigenvalues --    1.18917   1.23096   1.23437   1.24484   1.24887
 Alpha virt. eigenvalues --    1.26674   1.31293   1.32180   1.32985   1.33158
 Alpha virt. eigenvalues --    1.33489   1.34845   1.35102   1.37848   1.38127
 Alpha virt. eigenvalues --    1.38571   1.38672   1.41793   1.44061   1.44416
 Alpha virt. eigenvalues --    1.47227   1.51126   1.53940   1.54230   1.55466
 Alpha virt. eigenvalues --    1.62432   1.62817   1.64158   1.70057   1.70295
 Alpha virt. eigenvalues --    1.75118   1.80992   1.81504   1.82410   1.83432
 Alpha virt. eigenvalues --    1.83823   1.86446   1.92672   1.93912   1.97595
 Alpha virt. eigenvalues --    2.01917   2.02621   2.02852   2.04676   2.05990
 Alpha virt. eigenvalues --    2.07236   2.18682   2.25545   2.26567   2.33367
 Alpha virt. eigenvalues --    2.41092   2.44860   2.46058   2.60681   2.60806
 Alpha virt. eigenvalues --    2.62484   2.67974   2.68928   2.72774   2.80775
 Alpha virt. eigenvalues --    3.03704   3.08029   3.08934   3.09116   3.09284
 Alpha virt. eigenvalues --    3.09687   3.11690   3.15817   3.34889   3.35113
 Alpha virt. eigenvalues --    3.35715   3.53298   3.53739   3.54783   3.56417
 Alpha virt. eigenvalues --    3.57184   3.59483   3.61972   3.65014   3.66189
 Alpha virt. eigenvalues --    3.69762   3.99424   3.99743   4.00102   4.00894
 Alpha virt. eigenvalues --    4.01144   4.02385   4.03318   4.04756   4.05709
 Alpha virt. eigenvalues --    4.11702   4.13292   4.14613   4.15593   4.17054
 Alpha virt. eigenvalues --    4.17403   4.19574   4.29758   4.29798   4.29960
 Alpha virt. eigenvalues --    4.36331   4.37027   4.37691   4.41512   4.42169
 Alpha virt. eigenvalues --    4.44339   4.47696   4.53193   4.53866   4.58342
 Alpha virt. eigenvalues --    4.58361   4.58610   4.60258   4.61129   4.62490
 Alpha virt. eigenvalues --    4.77108   4.92322   4.92526   4.92690   4.96180
 Alpha virt. eigenvalues --    4.98929   4.99309   4.99774   5.13227   5.13629
 Alpha virt. eigenvalues --    5.15806   5.16166   5.16642   5.29262   5.29808
 Alpha virt. eigenvalues --    5.30109   5.30424   5.30717   5.31381   5.41500
 Alpha virt. eigenvalues --    5.42936   5.47795   5.48575   5.50020   5.51039
 Alpha virt. eigenvalues --    5.76460   5.77442   5.77610   6.14282   6.14468
 Alpha virt. eigenvalues --    6.15240   6.24910   6.24924   6.80543   6.80850
 Alpha virt. eigenvalues --    6.85314   6.97925   7.66154   7.66487   7.67531
 Alpha virt. eigenvalues --    8.02482   8.03457   8.07952  10.30562  15.39448
 Alpha virt. eigenvalues --   52.25329
          Condensed to atoms (all electrons):
 Mulliken charges:
               1
     1  C    0.003870
     2  H    0.000807
     3  H   -0.000761
     4  H   -0.000324
     5  H   -0.000104
     6  C   -0.647698
     7  H    0.119599
     8  H    0.147841
     9  H    0.222726
    10  H    0.154045
 Sum of Mulliken charges =   0.00000
 Mulliken charges with hydrogens summed into heavy atoms:
               1
     1  C    0.003487
     6  C   -0.003487
 Electronic spatial extent (au):  <R**2>=            898.2482
 Charge=              0.0000 electrons
 Dipole moment (field-independent basis, Debye):
    X=             -0.0000    Y=              0.0000    Z=              0.0006  Tot=              0.0006

 Test job not archived.
 1\1\GINC-CHIMERA-NODE31\SP\RM05\Gen\C2H8\CONNORNM\08-Dec-2018\0\\#T M0
 5/Gen test Massage SCF=(tight,maxcyc=40)\\M05 opt\\0,1\C,0,0.,0.,0.\H,
 0,0.8481592,0.,-0.71176676\H,0,0.38526425,-0.0998404,1.03324213\H,0,-0
 .56113002,0.94983569,-0.09450512\H,0,-0.67229344,-0.84999529,-0.226970
 25\C,0,0.,0.,4.91284156\H,0,-0.63381774,-0.49904988,5.67126773\H,0,0.7
 3637469,-0.72384434,4.5131071\H,0,-0.6366913,0.37279319,4.08722944\H,0
 ,0.53413436,0.85010103,5.37976198\\Version=AS64L-G09RevD.01\HF=-44.292
 9911\RMSD=7.279e-10\Dipole=-0.0000087,0.0000179,0.0002183\Quadrupole=-
 0.0012307,-0.0018144,0.0030451,-0.0003751,-0.0005057,-0.0000689\PG=C01
  [X(C2H8)]\\@


 SLITHERY-DITHERY
 FRIEDRICH A. KEKULE
 DREAMT ON A BUS OF THINGS
 FREUD WOULD THINK KEEN.
 MOST OF THE TIME THEY WERE
 HERPETOLOGICAL
 BITING THEIR TAILS IN THE
 SHAPE OF BENZENE.
 Job cpu time:       0 days  0 hours 13 minutes 36.8 seconds.
 File lengths (MBytes):  RWF=     41 Int=      0 D2E=      0 Chk=      4 Scr=      1
 Normal termination of Gaussian 09 at Sat Dec  8 13:16:10 2018.
