 Entering Gaussian System, Link 0=/data/szalewicgrp/connornm/opt/Gaussian/g09-M05-par/g09/g09
 AtFile(1): aug-cc-pVTZ.gbs
 Initial command:
 /data/szalewicgrp/connornm/opt/Gaussian/g09-M05-par/g09/l1.exe "/scratch/local/Gau-21825.inp" -scrdir="/scratch/local/"
 Entering Link 1 = /data/szalewicgrp/connornm/opt/Gaussian/g09-M05-par/g09/l1.exe PID=     21826.
  
 Copyright (c) 1988,1990,1992,1993,1995,1998,2003,2009,2013,
            Gaussian, Inc.  All Rights Reserved.
  
 This is part of the Gaussian(R) 09 program.  It is based on
 the Gaussian(R) 03 system (copyright 2003, Gaussian, Inc.),
 the Gaussian(R) 98 system (copyright 1998, Gaussian, Inc.),
 the Gaussian(R) 94 system (copyright 1995, Gaussian, Inc.),
 the Gaussian 92(TM) system (copyright 1992, Gaussian, Inc.),
 the Gaussian 90(TM) system (copyright 1990, Gaussian, Inc.),
 the Gaussian 88(TM) system (copyright 1988, Gaussian, Inc.),
 the Gaussian 86(TM) system (copyright 1986, Carnegie Mellon
 University), and the Gaussian 82(TM) system (copyright 1983,
 Carnegie Mellon University). Gaussian is a federally registered
 trademark of Gaussian, Inc.
  
 This software contains proprietary and confidential information,
 including trade secrets, belonging to Gaussian, Inc.
  
 This software is provided under written license and may be
 used, copied, transmitted, or stored only in accord with that
 written license.
  
 The following legend is applicable only to US Government
 contracts under FAR:
  
                    RESTRICTED RIGHTS LEGEND
  
 Use, reproduction and disclosure by the US Government is
 subject to restrictions as set forth in subparagraphs (a)
 and (c) of the Commercial Computer Software - Restricted
 Rights clause in FAR 52.227-19.
  
 Gaussian, Inc.
 340 Quinnipiac St., Bldg. 40, Wallingford CT 06492
  
  
 ---------------------------------------------------------------
 Warning -- This program may not be used in any manner that
 competes with the business of Gaussian, Inc. or will provide
 assistance to any competitor of Gaussian, Inc.  The licensee
 of this program is prohibited from giving any competitor of
 Gaussian, Inc. access to this program.  By using this program,
 the user acknowledges that Gaussian, Inc. is engaged in the
 business of creating and licensing software in the field of
 computational chemistry and represents and warrants to the
 licensee that it is not a competitor of Gaussian, Inc. and that
 it will not use this program in any manner prohibited above.
 ---------------------------------------------------------------
  

 Cite this work as:
 Gaussian 09, Revision D.01,
 M. J. Frisch, G. W. Trucks, H. B. Schlegel, G. E. Scuseria, 
 M. A. Robb, J. R. Cheeseman, G. Scalmani, V. Barone, B. Mennucci, 
 G. A. Petersson, H. Nakatsuji, M. Caricato, X. Li, H. P. Hratchian, 
 A. F. Izmaylov, J. Bloino, G. Zheng, J. L. Sonnenberg, M. Hada, 
 M. Ehara, K. Toyota, R. Fukuda, J. Hasegawa, M. Ishida, T. Nakajima, 
 Y. Honda, O. Kitao, H. Nakai, T. Vreven, J. A. Montgomery, Jr., 
 J. E. Peralta, F. Ogliaro, M. Bearpark, J. J. Heyd, E. Brothers, 
 K. N. Kudin, V. N. Staroverov, T. Keith, R. Kobayashi, J. Normand, 
 K. Raghavachari, A. Rendell, J. C. Burant, S. S. Iyengar, J. Tomasi, 
 M. Cossi, N. Rega, J. M. Millam, M. Klene, J. E. Knox, J. B. Cross, 
 V. Bakken, C. Adamo, J. Jaramillo, R. Gomperts, R. E. Stratmann, 
 O. Yazyev, A. J. Austin, R. Cammi, C. Pomelli, J. W. Ochterski, 
 R. L. Martin, K. Morokuma, V. G. Zakrzewski, G. A. Voth, 
 P. Salvador, J. J. Dannenberg, S. Dapprich, A. D. Daniels, 
 O. Farkas, J. B. Foresman, J. V. Ortiz, J. Cioslowski, 
 and D. J. Fox, Gaussian, Inc., Wallingford CT, 2013.
 
 ******************************************
 Gaussian 09:  AS64L-G09RevD.01 24-Apr-2013
                 8-Dec-2018 
 ******************************************
 %Chk=CH400210
 %Mem=2GB
 %NProcShared=16
 Will use up to   16 processors via shared memory.
 ---------------------------------------------
 #T M05/Gen test Massage SCF=(tight,maxcyc=40)
 ---------------------------------------------
 -------
 M05 opt
 -------
 Symbolic Z-matrix:
 Charge =  0 Multiplicity = 1
 6-Bq                  0.        0.        0. 
 1-Bq                  0.39683   0.        1.03369 
 1-Bq                  0.19127   0.98471  -0.46877 
 1-Bq                  0.50208  -0.7925   -0.58809 
 1-Bq                 -1.09018  -0.19221   0.02317 
 6                     0.        0.        2.73575 
 1                    -0.74139   0.47105   3.40988 
 1                     0.31998   0.73253   1.96959 
 1                     0.87921  -0.32623   3.32444 
 1                    -0.4578   -0.87735   2.23911 
 
                    Distance matrix (angstroms):
                    1          2          3          4          5
     1  C    0.000000
     2  H    1.107242   0.000000
     3  H    1.107242   1.808119   0.000000
     4  H    1.107242   1.808119   1.808119   0.000000
     5  H    1.107242   1.808119   1.808119   1.808119   0.000000
     6  C    2.735754   1.747711   3.357860   3.453704   2.929770
     7  H    3.521193   2.676506   4.022141   4.373385   3.468622
     8  H    2.125627   1.190974   2.454749   2.983388   2.575322
     9  H    3.454175   2.363609   4.071886   3.958220   3.846407
    10  H    2.448045   1.718478   3.349802   2.986909   2.404097
                    6          7          8          9         10
     6  C    0.000000
     7  H    1.107243   0.000000
     8  H    1.107242   1.808119   0.000000
     9  H    1.107243   1.808119   1.808119   0.000000
    10  H    1.107242   1.808119   1.808119   1.808119   0.000000
 Symmetry turned off by external request.
 This structure is nearly, but not quite of a higher symmetry.
 Consider Symm=Loose if the higher symmetry is desired.
 Framework group  C1[X(C2H8)]
 Deg. of freedom    24
 Rotational constants (GHZ):     76.6916057      7.5903608      7.5903608
   276 basis functions,   360 primitive gaussians,   310 cartesian basis functions
     5 alpha electrons        5 beta electrons
       nuclear repulsion energy        13.2261669766 Hartrees.
 IMHF & INEx in M05                  614413                  385587
 NAtoms=   10 NActive=   10 NUniq=   10 SFac= 1.00D+00 NAtFMM=   60 NAOKFM=F Big=F
 ExpMin= 2.53D-02 ExpMax= 8.24D+03 ExpMxC= 2.81D+02 IAcc=3 IRadAn=         5 AccDes= 0.00D+00
 Harris functional with IExCor= 1009 and IRadAn=       5 diagonalized for initial guess.
 HarFok:  IExCor= 1009 AccDes= 0.00D+00 IRadAn=         5 IDoV= 1 UseB2=F ITyADJ=14
 ICtDFT=  3500011 ScaDFX=  1.000000  1.000000  1.000000  1.000000
 FoFCou: FMM=F IPFlag=           0 FMFlag=      100000 FMFlg1=           0
         NFxFlg=           0 DoJE=T BraDBF=F KetDBF=T FulRan=T
         wScrn=  0.000000 ICntrl=     500 IOpCl=  0 I1Cent=   200000004 NGrid=           0
         NMat0=    1 NMatS0=      1 NMatT0=    0 NMatD0=    1 NMtDS0=    0 NMtDT0=    0
 Symmetry not used in FoFCou.
 SCF Done:  E(RM05) =  -45.8817901004     A.U. after   11 cycles
            NFock= 11  Conv=0.26D-08     -V/T= 2.0328

 **********************************************************************

            Population analysis using the SCF density.

 **********************************************************************

 Alpha  occ. eigenvalues --  -12.05247  -0.99455  -0.71193  -0.71162  -0.71143
 Alpha virt. eigenvalues --   -0.08954  -0.01739  -0.01720  -0.01717  -0.00510
 Alpha virt. eigenvalues --   -0.00428  -0.00375   0.03134   0.04121   0.04884
 Alpha virt. eigenvalues --    0.05308   0.06006   0.06349   0.07113   0.07894
 Alpha virt. eigenvalues --    0.08544   0.09237   0.11261   0.12526   0.13431
 Alpha virt. eigenvalues --    0.15882   0.17077   0.18282   0.19628   0.20584
 Alpha virt. eigenvalues --    0.21809   0.21911   0.22458   0.23118   0.23343
 Alpha virt. eigenvalues --    0.23896   0.24360   0.25106   0.25578   0.27411
 Alpha virt. eigenvalues --    0.28326   0.29003   0.30087   0.30990   0.31550
 Alpha virt. eigenvalues --    0.32974   0.34079   0.36435   0.37483   0.38878
 Alpha virt. eigenvalues --    0.39446   0.40118   0.41157   0.41768   0.42704
 Alpha virt. eigenvalues --    0.43775   0.44346   0.45314   0.46969   0.49331
 Alpha virt. eigenvalues --    0.49921   0.52075   0.52425   0.53402   0.55086
 Alpha virt. eigenvalues --    0.55827   0.57102   0.57448   0.58899   0.60340
 Alpha virt. eigenvalues --    0.62200   0.62320   0.63946   0.65404   0.66350
 Alpha virt. eigenvalues --    0.66838   0.67838   0.70229   0.72030   0.74837
 Alpha virt. eigenvalues --    0.77833   0.78556   0.79577   0.80397   0.81990
 Alpha virt. eigenvalues --    0.84152   0.85231   0.86549   0.86869   0.88711
 Alpha virt. eigenvalues --    0.89741   0.91667   0.93306   0.94476   0.95287
 Alpha virt. eigenvalues --    0.97413   0.98204   0.98762   1.01044   1.01778
 Alpha virt. eigenvalues --    1.02166   1.03586   1.05535   1.07485   1.08591
 Alpha virt. eigenvalues --    1.10778   1.11730   1.13980   1.15501   1.17489
 Alpha virt. eigenvalues --    1.19417   1.20359   1.21467   1.22861   1.23901
 Alpha virt. eigenvalues --    1.25136   1.26569   1.27240   1.28904   1.29226
 Alpha virt. eigenvalues --    1.30879   1.31871   1.33607   1.34843   1.36061
 Alpha virt. eigenvalues --    1.37321   1.38215   1.40309   1.42524   1.45020
 Alpha virt. eigenvalues --    1.48654   1.49363   1.51175   1.52348   1.53645
 Alpha virt. eigenvalues --    1.55104   1.58065   1.62501   1.64857   1.68087
 Alpha virt. eigenvalues --    1.72480   1.73258   1.73777   1.74920   1.77814
 Alpha virt. eigenvalues --    1.78942   1.82860   1.83925   1.85154   1.87368
 Alpha virt. eigenvalues --    1.88667   1.91088   1.96014   1.97714   1.99321
 Alpha virt. eigenvalues --    2.02189   2.02908   2.06463   2.11190   2.15332
 Alpha virt. eigenvalues --    2.21070   2.22912   2.29846   2.30583   2.35167
 Alpha virt. eigenvalues --    2.39653   2.50205   2.54740   2.57552   2.62076
 Alpha virt. eigenvalues --    2.62220   2.65074   2.67065   2.77516   2.92650
 Alpha virt. eigenvalues --    3.02433   3.06016   3.09014   3.13240   3.13723
 Alpha virt. eigenvalues --    3.19681   3.22423   3.25143   3.27417   3.28769
 Alpha virt. eigenvalues --    3.40340   3.47758   3.48364   3.50357   3.53351
 Alpha virt. eigenvalues --    3.58482   3.59436   3.60804   3.67840   3.74517
 Alpha virt. eigenvalues --    3.80643   3.88087   3.89912   3.92801   3.94510
 Alpha virt. eigenvalues --    3.99772   4.00070   4.02457   4.04298   4.06342
 Alpha virt. eigenvalues --    4.08367   4.09877   4.11305   4.16563   4.18289
 Alpha virt. eigenvalues --    4.21141   4.24659   4.25527   4.28991   4.33828
 Alpha virt. eigenvalues --    4.35559   4.36263   4.42786   4.43392   4.45837
 Alpha virt. eigenvalues --    4.50438   4.52371   4.54044   4.55538   4.59044
 Alpha virt. eigenvalues --    4.61353   4.67643   4.71323   4.77225   4.79795
 Alpha virt. eigenvalues --    4.82070   4.83919   4.85581   4.87403   4.89970
 Alpha virt. eigenvalues --    4.97874   5.00891   5.04648   5.05829   5.11908
 Alpha virt. eigenvalues --    5.15972   5.19863   5.22836   5.23273   5.28016
 Alpha virt. eigenvalues --    5.30649   5.35332   5.37275   5.41209   5.42431
 Alpha virt. eigenvalues --    5.45910   5.48430   5.53197   5.64496   5.69786
 Alpha virt. eigenvalues --    5.75275   5.78627   5.91908   6.07145   6.09282
 Alpha virt. eigenvalues --    6.13538   6.22220   6.43715   6.76020   6.80666
 Alpha virt. eigenvalues --    6.91290   7.01212   7.51641   7.63278   7.70114
 Alpha virt. eigenvalues --    7.99718   8.03680   8.15538  10.40559  15.96340
 Alpha virt. eigenvalues --   53.93995
          Condensed to atoms (all electrons):
 Mulliken charges:
               1
     1  C   -0.027611
     2  H   -0.325915
     3  H    0.033924
     4  H   -0.026598
     5  H    0.008908
     6  C    0.466223
     7  H   -0.678442
     8  H    0.653568
     9  H   -0.189974
    10  H    0.085916
 Sum of Mulliken charges =  -0.00000
 Mulliken charges with hydrogens summed into heavy atoms:
               1
     1  C   -0.337291
     6  C    0.337291
 Electronic spatial extent (au):  <R**2>=            302.8589
 Charge=             -0.0000 electrons
 Dipole moment (field-independent basis, Debye):
    X=             -0.0003    Y=              0.0021    Z=              0.0007  Tot=              0.0022

 Test job not archived.
 1\1\GINC-CHIMERA-NODE53\SP\RM05\Gen\C2H8\CONNORNM\08-Dec-2018\0\\#T M0
 5/Gen test Massage SCF=(tight,maxcyc=40)\\M05 opt\\0,1\C,0,0.,0.,0.\H,
 0,0.39682654,0.,1.03368982\H,0,0.19127459,0.98470951,-0.46877197\H,0,0
 .50208359,-0.79249531,-0.58808945\H,0,-1.09018472,-0.1922142,0.0231716
 \C,0,0.,0.,2.73575394\H,0,-0.74139069,0.4710474,3.40987571\H,0,0.31998
 349,0.73252772,1.96959491\H,0,0.87921177,-0.32622549,3.32443854\H,0,-0
 .45780457,-0.87734962,2.23910661\\Version=AS64L-G09RevD.01\HF=-45.8817
 901\RMSD=2.584e-09\Dipole=-0.0001296,0.0008075,0.0002684\Quadrupole=-0
 .0012376,-0.0012864,0.002524,-0.0011948,0.0007286,0.0046514\PG=C01 [X(
 C2H8)]\\@


 BLACK HOLES SUCK.
 Job cpu time:       0 days  0 hours 20 minutes 18.8 seconds.
 File lengths (MBytes):  RWF=     41 Int=      0 D2E=      0 Chk=      4 Scr=      1
 Normal termination of Gaussian 09 at Sat Dec  8 14:10:30 2018.
