 Entering Gaussian System, Link 0=/data/szalewicgrp/connornm/opt/Gaussian/g09-M05-par/g09/g09
 AtFile(1): aug-cc-pVTZ.gbs
 Initial command:
 /data/szalewicgrp/connornm/opt/Gaussian/g09-M05-par/g09/l1.exe "/scratch/local/Gau-30077.inp" -scrdir="/scratch/local/"
 Entering Link 1 = /data/szalewicgrp/connornm/opt/Gaussian/g09-M05-par/g09/l1.exe PID=     30078.
  
 Copyright (c) 1988,1990,1992,1993,1995,1998,2003,2009,2013,
            Gaussian, Inc.  All Rights Reserved.
  
 This is part of the Gaussian(R) 09 program.  It is based on
 the Gaussian(R) 03 system (copyright 2003, Gaussian, Inc.),
 the Gaussian(R) 98 system (copyright 1998, Gaussian, Inc.),
 the Gaussian(R) 94 system (copyright 1995, Gaussian, Inc.),
 the Gaussian 92(TM) system (copyright 1992, Gaussian, Inc.),
 the Gaussian 90(TM) system (copyright 1990, Gaussian, Inc.),
 the Gaussian 88(TM) system (copyright 1988, Gaussian, Inc.),
 the Gaussian 86(TM) system (copyright 1986, Carnegie Mellon
 University), and the Gaussian 82(TM) system (copyright 1983,
 Carnegie Mellon University). Gaussian is a federally registered
 trademark of Gaussian, Inc.
  
 This software contains proprietary and confidential information,
 including trade secrets, belonging to Gaussian, Inc.
  
 This software is provided under written license and may be
 used, copied, transmitted, or stored only in accord with that
 written license.
  
 The following legend is applicable only to US Government
 contracts under FAR:
  
                    RESTRICTED RIGHTS LEGEND
  
 Use, reproduction and disclosure by the US Government is
 subject to restrictions as set forth in subparagraphs (a)
 and (c) of the Commercial Computer Software - Restricted
 Rights clause in FAR 52.227-19.
  
 Gaussian, Inc.
 340 Quinnipiac St., Bldg. 40, Wallingford CT 06492
  
  
 ---------------------------------------------------------------
 Warning -- This program may not be used in any manner that
 competes with the business of Gaussian, Inc. or will provide
 assistance to any competitor of Gaussian, Inc.  The licensee
 of this program is prohibited from giving any competitor of
 Gaussian, Inc. access to this program.  By using this program,
 the user acknowledges that Gaussian, Inc. is engaged in the
 business of creating and licensing software in the field of
 computational chemistry and represents and warrants to the
 licensee that it is not a competitor of Gaussian, Inc. and that
 it will not use this program in any manner prohibited above.
 ---------------------------------------------------------------
  

 Cite this work as:
 Gaussian 09, Revision D.01,
 M. J. Frisch, G. W. Trucks, H. B. Schlegel, G. E. Scuseria, 
 M. A. Robb, J. R. Cheeseman, G. Scalmani, V. Barone, B. Mennucci, 
 G. A. Petersson, H. Nakatsuji, M. Caricato, X. Li, H. P. Hratchian, 
 A. F. Izmaylov, J. Bloino, G. Zheng, J. L. Sonnenberg, M. Hada, 
 M. Ehara, K. Toyota, R. Fukuda, J. Hasegawa, M. Ishida, T. Nakajima, 
 Y. Honda, O. Kitao, H. Nakai, T. Vreven, J. A. Montgomery, Jr., 
 J. E. Peralta, F. Ogliaro, M. Bearpark, J. J. Heyd, E. Brothers, 
 K. N. Kudin, V. N. Staroverov, T. Keith, R. Kobayashi, J. Normand, 
 K. Raghavachari, A. Rendell, J. C. Burant, S. S. Iyengar, J. Tomasi, 
 M. Cossi, N. Rega, J. M. Millam, M. Klene, J. E. Knox, J. B. Cross, 
 V. Bakken, C. Adamo, J. Jaramillo, R. Gomperts, R. E. Stratmann, 
 O. Yazyev, A. J. Austin, R. Cammi, C. Pomelli, J. W. Ochterski, 
 R. L. Martin, K. Morokuma, V. G. Zakrzewski, G. A. Voth, 
 P. Salvador, J. J. Dannenberg, S. Dapprich, A. D. Daniels, 
 O. Farkas, J. B. Foresman, J. V. Ortiz, J. Cioslowski, 
 and D. J. Fox, Gaussian, Inc., Wallingford CT, 2013.
 
 ******************************************
 Gaussian 09:  AS64L-G09RevD.01 24-Apr-2013
                 7-Dec-2018 
 ******************************************
 %Chk=CH400249
 %Mem=2GB
 %NProcShared=16
 Will use up to   16 processors via shared memory.
 ---------------------------------------------
 #T M05/Gen test Massage SCF=(tight,maxcyc=40)
 ---------------------------------------------
 -------
 M05 opt
 -------
 Symbolic Z-matrix:
 Charge =  0 Multiplicity = 1
 6-Bq                  0.        0.        0. 
 1-Bq                  0.99499   0.       -0.48578 
 1-Bq                  0.11879   0.18864   1.08457 
 1-Bq                 -0.62856   0.79486  -0.4462 
 1-Bq                 -0.48522  -0.9835   -0.15259 
 6                     0.        0.        4.67339 
 1                     0.02257   0.06184   3.5681 
 1                     0.16911  -1.04807   4.98793 
 1                     0.79499   0.64487   5.09543 
 1                    -0.98668   0.34136   5.04207 
 
                    Distance matrix (angstroms):
                    1          2          3          4          5
     1  C    0.000000
     2  H    1.107242   0.000000
     3  H    1.107243   1.808119   0.000000
     4  H    1.107243   1.808119   1.808119   0.000000
     5  H    1.107243   1.808119   1.808119   1.808119   0.000000
     6  C    4.673385   5.254233   3.595734   5.218913   4.949015
     7  H    3.568709   4.169335   2.488628   4.132302   3.897965
     8  H    5.099660   5.634007   4.094905   5.793314   5.182405
     9  H    5.197241   5.621901   4.092973   5.723524   5.642009
    10  H    5.149032   5.882230   4.111837   5.518608   5.384349
                    6          7          8          9         10
     6  C    0.000000
     7  H    1.107242   0.000000
     8  H    1.107242   1.808119   0.000000
     9  H    1.107242   1.808119   1.808119   0.000000
    10  H    1.107243   1.808119   1.808119   1.808119   0.000000
 Symmetry turned off by external request.
 This structure is nearly, but not quite of a higher symmetry.
 Consider Symm=Loose if the higher symmetry is desired.
 Framework group  C1[X(C2H8)]
 Deg. of freedom    24
 Rotational constants (GHZ):     76.6916056      2.7820692      2.7820692
   276 basis functions,   360 primitive gaussians,   310 cartesian basis functions
     5 alpha electrons        5 beta electrons
       nuclear repulsion energy        13.2261670130 Hartrees.
 IMHF & INEx in M05                  614413                  385587
 NAtoms=   10 NActive=   10 NUniq=   10 SFac= 1.00D+00 NAtFMM=   60 NAOKFM=F Big=F
 ExpMin= 2.53D-02 ExpMax= 8.24D+03 ExpMxC= 2.81D+02 IAcc=3 IRadAn=         5 AccDes= 0.00D+00
 Harris functional with IExCor= 1009 and IRadAn=       5 diagonalized for initial guess.
 HarFok:  IExCor= 1009 AccDes= 0.00D+00 IRadAn=         5 IDoV= 1 UseB2=F ITyADJ=14
 ICtDFT=  3500011 ScaDFX=  1.000000  1.000000  1.000000  1.000000
 FoFCou: FMM=F IPFlag=           0 FMFlag=      100000 FMFlg1=           0
         NFxFlg=           0 DoJE=T BraDBF=F KetDBF=T FulRan=T
         wScrn=  0.000000 ICntrl=     500 IOpCl=  0 I1Cent=   200000004 NGrid=           0
         NMat0=    1 NMatS0=      1 NMatT0=    0 NMatD0=    1 NMtDS0=    0 NMtDT0=    0
 Symmetry not used in FoFCou.
 SCF Done:  E(RM05) =  -45.8802160616     A.U. after   10 cycles
            NFock= 10  Conv=0.68D-08     -V/T= 2.0332

 **********************************************************************

            Population analysis using the SCF density.

 **********************************************************************

 Alpha  occ. eigenvalues --  -12.05203  -0.99434  -0.71147  -0.71137  -0.71137
 Alpha virt. eigenvalues --   -0.08960  -0.01758  -0.01718  -0.01717  -0.00371
 Alpha virt. eigenvalues --   -0.00305  -0.00270   0.02781   0.04263   0.04388
 Alpha virt. eigenvalues --    0.05086   0.05811   0.06025   0.07226   0.07287
 Alpha virt. eigenvalues --    0.08505   0.09161   0.11296   0.11977   0.12229
 Alpha virt. eigenvalues --    0.14532   0.17056   0.19649   0.19899   0.20438
 Alpha virt. eigenvalues --    0.20640   0.21216   0.22589   0.22843   0.23300
 Alpha virt. eigenvalues --    0.24238   0.24385   0.24606   0.25812   0.26222
 Alpha virt. eigenvalues --    0.26704   0.26890   0.27351   0.27643   0.30153
 Alpha virt. eigenvalues --    0.30397   0.30717   0.33600   0.35382   0.35494
 Alpha virt. eigenvalues --    0.35803   0.36878   0.38069   0.39595   0.40056
 Alpha virt. eigenvalues --    0.40358   0.40730   0.41990   0.45954   0.46726
 Alpha virt. eigenvalues --    0.46859   0.52695   0.52942   0.53941   0.55739
 Alpha virt. eigenvalues --    0.56757   0.57403   0.58839   0.59016   0.61138
 Alpha virt. eigenvalues --    0.62759   0.63600   0.64729   0.64797   0.65933
 Alpha virt. eigenvalues --    0.66864   0.70285   0.70717   0.70987   0.71446
 Alpha virt. eigenvalues --    0.71555   0.72984   0.76742   0.77335   0.77829
 Alpha virt. eigenvalues --    0.78808   0.80811   0.81998   0.85211   0.86822
 Alpha virt. eigenvalues --    0.87388   0.89108   0.90006   0.91099   0.92233
 Alpha virt. eigenvalues --    0.92846   0.94374   0.96395   0.98293   0.98813
 Alpha virt. eigenvalues --    1.00423   1.01043   1.01767   1.02820   1.05422
 Alpha virt. eigenvalues --    1.06114   1.06853   1.07273   1.07758   1.09293
 Alpha virt. eigenvalues --    1.10144   1.10295   1.12582   1.16033   1.19490
 Alpha virt. eigenvalues --    1.20994   1.21951   1.22074   1.23766   1.25009
 Alpha virt. eigenvalues --    1.26153   1.26531   1.27217   1.28044   1.28192
 Alpha virt. eigenvalues --    1.30982   1.33124   1.34405   1.36929   1.37473
 Alpha virt. eigenvalues --    1.38304   1.38427   1.40439   1.41912   1.47188
 Alpha virt. eigenvalues --    1.48304   1.48811   1.50039   1.53722   1.54711
 Alpha virt. eigenvalues --    1.57357   1.58395   1.64672   1.69629   1.70270
 Alpha virt. eigenvalues --    1.73813   1.75833   1.80682   1.81895   1.83825
 Alpha virt. eigenvalues --    1.84466   1.86682   1.92782   1.93883   1.94868
 Alpha virt. eigenvalues --    2.02118   2.02826   2.04370   2.07914   2.09560
 Alpha virt. eigenvalues --    2.11569   2.25217   2.29098   2.32108   2.37557
 Alpha virt. eigenvalues --    2.45314   2.47252   2.48369   2.49061   2.49913
 Alpha virt. eigenvalues --    2.52680   2.67959   2.68091   2.73368   2.96665
 Alpha virt. eigenvalues --    2.96831   2.98313   2.98769   2.99673   3.02644
 Alpha virt. eigenvalues --    3.03836   3.09992   3.11077   3.22072   3.22243
 Alpha virt. eigenvalues --    3.37481   3.45604   3.45846   3.46117   3.48724
 Alpha virt. eigenvalues --    3.49424   3.49448   3.52197   3.55791   3.55881
 Alpha virt. eigenvalues --    3.79372   3.89971   3.90438   3.91576   3.99469
 Alpha virt. eigenvalues --    3.99659   4.00495   4.02099   4.02929   4.04723
 Alpha virt. eigenvalues --    4.04808   4.05288   4.06303   4.09972   4.12608
 Alpha virt. eigenvalues --    4.15660   4.17470   4.18286   4.19548   4.25059
 Alpha virt. eigenvalues --    4.36113   4.37001   4.38472   4.40324   4.42663
 Alpha virt. eigenvalues --    4.44113   4.45162   4.47515   4.47938   4.53181
 Alpha virt. eigenvalues --    4.53823   4.59650   4.60329   4.61327   4.74390
 Alpha virt. eigenvalues --    4.78839   4.83199   4.88580   4.89379   4.89479
 Alpha virt. eigenvalues --    4.91963   4.92458   4.93692   5.02778   5.02815
 Alpha virt. eigenvalues --    5.15126   5.15224   5.15896   5.16387   5.16844
 Alpha virt. eigenvalues --    5.19267   5.30366   5.30408   5.31130   5.43739
 Alpha virt. eigenvalues --    5.43954   5.47593   5.48803   5.50626   5.61113
 Alpha virt. eigenvalues --    5.61613   5.66942   5.74707   6.13972   6.14375
 Alpha virt. eigenvalues --    6.14857   6.24169   6.24211   6.80421   6.80684
 Alpha virt. eigenvalues --    6.95065   7.00874   7.65904   7.67040   7.67399
 Alpha virt. eigenvalues --    8.02402   8.04310   8.10930  10.37196  15.31238
 Alpha virt. eigenvalues --   53.01838
          Condensed to atoms (all electrons):
 Mulliken charges:
               1
     1  C    0.016023
     2  H    0.002432
     3  H   -0.025203
     4  H    0.002438
     5  H    0.003363
     6  C   -0.135724
     7  H    1.322735
     8  H   -0.393603
     9  H   -0.391507
    10  H   -0.400954
 Sum of Mulliken charges =  -0.00000
 Mulliken charges with hydrogens summed into heavy atoms:
               1
     1  C   -0.000947
     6  C    0.000947
 Electronic spatial extent (au):  <R**2>=            815.5281
 Charge=             -0.0000 electrons
 Dipole moment (field-independent basis, Debye):
    X=             -0.0000    Y=             -0.0001    Z=              0.0002  Tot=              0.0002

 Test job not archived.
 1\1\GINC-CHIMERA-NODE61\SP\RM05\Gen\C2H8\CONNORNM\07-Dec-2018\0\\#T M0
 5/Gen test Massage SCF=(tight,maxcyc=40)\\M05 opt\\0,1\C,0,0.,0.,0.\H,
 0,0.99499086,0.,-0.48577684\H,0,0.11879143,0.18864048,1.08456873\H,0,-
 0.6285648,0.79485638,-0.44620128\H,0,-0.48521749,-0.98349685,-0.152590
 6\C,0,0.,0.,4.67338525\H,0,0.02257061,0.06184028,3.56810144\H,0,0.1691
 1481,-1.04806721,4.98793454\H,0,0.79499034,0.644865,5.09543435\H,0,-0.
 98667576,0.34136192,5.04207067\\Version=AS64L-G09RevD.01\HF=-45.880216
 1\RMSD=6.768e-09\Dipole=-0.0000074,-0.0000217,0.0000842\Quadrupole=-0.
 0007463,-0.0008007,0.001547,-0.0000214,-0.0000157,-0.0001672\PG=C01 [X
 (C2H8)]\\@


 My opinions may have changed, but not the fact that I am right.
                       -- Ashleigh Brilliant
 Job cpu time:       0 days  0 hours 14 minutes 14.6 seconds.
 File lengths (MBytes):  RWF=     41 Int=      0 D2E=      0 Chk=      4 Scr=      1
 Normal termination of Gaussian 09 at Fri Dec  7 11:59:51 2018.
