 Entering Gaussian System, Link 0=/data/szalewicgrp/connornm/opt/Gaussian/g09-M05-par/g09/g09
 AtFile(1): aug-cc-pVTZ.gbs
 Initial command:
 /data/szalewicgrp/connornm/opt/Gaussian/g09-M05-par/g09/l1.exe "/scratch/local/Gau-21316.inp" -scrdir="/scratch/local/"
 Entering Link 1 = /data/szalewicgrp/connornm/opt/Gaussian/g09-M05-par/g09/l1.exe PID=     21317.
  
 Copyright (c) 1988,1990,1992,1993,1995,1998,2003,2009,2013,
            Gaussian, Inc.  All Rights Reserved.
  
 This is part of the Gaussian(R) 09 program.  It is based on
 the Gaussian(R) 03 system (copyright 2003, Gaussian, Inc.),
 the Gaussian(R) 98 system (copyright 1998, Gaussian, Inc.),
 the Gaussian(R) 94 system (copyright 1995, Gaussian, Inc.),
 the Gaussian 92(TM) system (copyright 1992, Gaussian, Inc.),
 the Gaussian 90(TM) system (copyright 1990, Gaussian, Inc.),
 the Gaussian 88(TM) system (copyright 1988, Gaussian, Inc.),
 the Gaussian 86(TM) system (copyright 1986, Carnegie Mellon
 University), and the Gaussian 82(TM) system (copyright 1983,
 Carnegie Mellon University). Gaussian is a federally registered
 trademark of Gaussian, Inc.
  
 This software contains proprietary and confidential information,
 including trade secrets, belonging to Gaussian, Inc.
  
 This software is provided under written license and may be
 used, copied, transmitted, or stored only in accord with that
 written license.
  
 The following legend is applicable only to US Government
 contracts under FAR:
  
                    RESTRICTED RIGHTS LEGEND
  
 Use, reproduction and disclosure by the US Government is
 subject to restrictions as set forth in subparagraphs (a)
 and (c) of the Commercial Computer Software - Restricted
 Rights clause in FAR 52.227-19.
  
 Gaussian, Inc.
 340 Quinnipiac St., Bldg. 40, Wallingford CT 06492
  
  
 ---------------------------------------------------------------
 Warning -- This program may not be used in any manner that
 competes with the business of Gaussian, Inc. or will provide
 assistance to any competitor of Gaussian, Inc.  The licensee
 of this program is prohibited from giving any competitor of
 Gaussian, Inc. access to this program.  By using this program,
 the user acknowledges that Gaussian, Inc. is engaged in the
 business of creating and licensing software in the field of
 computational chemistry and represents and warrants to the
 licensee that it is not a competitor of Gaussian, Inc. and that
 it will not use this program in any manner prohibited above.
 ---------------------------------------------------------------
  

 Cite this work as:
 Gaussian 09, Revision D.01,
 M. J. Frisch, G. W. Trucks, H. B. Schlegel, G. E. Scuseria, 
 M. A. Robb, J. R. Cheeseman, G. Scalmani, V. Barone, B. Mennucci, 
 G. A. Petersson, H. Nakatsuji, M. Caricato, X. Li, H. P. Hratchian, 
 A. F. Izmaylov, J. Bloino, G. Zheng, J. L. Sonnenberg, M. Hada, 
 M. Ehara, K. Toyota, R. Fukuda, J. Hasegawa, M. Ishida, T. Nakajima, 
 Y. Honda, O. Kitao, H. Nakai, T. Vreven, J. A. Montgomery, Jr., 
 J. E. Peralta, F. Ogliaro, M. Bearpark, J. J. Heyd, E. Brothers, 
 K. N. Kudin, V. N. Staroverov, T. Keith, R. Kobayashi, J. Normand, 
 K. Raghavachari, A. Rendell, J. C. Burant, S. S. Iyengar, J. Tomasi, 
 M. Cossi, N. Rega, J. M. Millam, M. Klene, J. E. Knox, J. B. Cross, 
 V. Bakken, C. Adamo, J. Jaramillo, R. Gomperts, R. E. Stratmann, 
 O. Yazyev, A. J. Austin, R. Cammi, C. Pomelli, J. W. Ochterski, 
 R. L. Martin, K. Morokuma, V. G. Zakrzewski, G. A. Voth, 
 P. Salvador, J. J. Dannenberg, S. Dapprich, A. D. Daniels, 
 O. Farkas, J. B. Foresman, J. V. Ortiz, J. Cioslowski, 
 and D. J. Fox, Gaussian, Inc., Wallingford CT, 2013.
 
 ******************************************
 Gaussian 09:  AS64L-G09RevD.01 24-Apr-2013
                 7-Dec-2018 
 ******************************************
 %Chk=CH400196
 %Mem=2GB
 %NProcShared=16
 Will use up to   16 processors via shared memory.
 ---------------------------------------------
 #T M05/Gen test Massage SCF=(tight,maxcyc=40)
 ---------------------------------------------
 -------
 M05 opt
 -------
 Symbolic Z-matrix:
 Charge =  0 Multiplicity = 1
 6-Bq                  0.        0.        0. 
 1-Bq                  0.14172   0.       -1.09814 
 1-Bq                 -0.95494   0.50212   0.2489 
 1-Bq                 -0.02466  -1.04367   0.36896 
 1-Bq                  0.83788   0.54155   0.48027 
 6                     0.        0.        3.13316 
 1                     0.89863  -0.14882   3.76268 
 1                    -0.72578   0.64      3.67133 
 1                     0.29134   0.49003   2.18396 
 1                    -0.46419  -0.98121   2.91466 
 
                    Distance matrix (angstroms):
                    1          2          3          4          5
     1  C    0.000000
     2  H    1.107243   0.000000
     3  H    1.107242   1.808119   0.000000
     4  H    1.107242   1.808119   1.808119   0.000000
     5  H    1.107243   1.808119   1.808119   1.808119   0.000000
     6  C    3.133157   4.233665   3.079440   2.954767   2.834275
     7  H    3.871363   4.921646   4.025677   3.629127   3.354773
     8  H    3.796712   4.889781   3.432861   3.772528   3.554937
     9  H    2.257142   3.321847   2.301696   2.397150   1.789947
    10  H    3.110221   4.175213   3.089877   2.584119   3.152843
                    6          7          8          9         10
     6  C    0.000000
     7  H    1.107243   0.000000
     8  H    1.107243   1.808119   0.000000
     9  H    1.107242   1.808119   1.808119   0.000000
    10  H    1.107242   1.808119   1.808119   1.808119   0.000000
 Symmetry turned off by external request.
 This structure is nearly, but not quite of a higher symmetry.
 Consider Symm=Loose if the higher symmetry is desired.
 Framework group  C1[X(C2H8)]
 Deg. of freedom    24
 Rotational constants (GHZ):     76.6916058      5.9263380      5.9263380
   276 basis functions,   360 primitive gaussians,   310 cartesian basis functions
     5 alpha electrons        5 beta electrons
       nuclear repulsion energy        13.2261670134 Hartrees.
 IMHF & INEx in M05                  614413                  385587
 NAtoms=   10 NActive=   10 NUniq=   10 SFac= 1.00D+00 NAtFMM=   60 NAOKFM=F Big=F
 ExpMin= 2.53D-02 ExpMax= 8.24D+03 ExpMxC= 2.81D+02 IAcc=3 IRadAn=         5 AccDes= 0.00D+00
 Harris functional with IExCor= 1009 and IRadAn=       5 diagonalized for initial guess.
 HarFok:  IExCor= 1009 AccDes= 0.00D+00 IRadAn=         5 IDoV= 1 UseB2=F ITyADJ=14
 ICtDFT=  3500011 ScaDFX=  1.000000  1.000000  1.000000  1.000000
 FoFCou: FMM=F IPFlag=           0 FMFlag=      100000 FMFlg1=           0
         NFxFlg=           0 DoJE=T BraDBF=F KetDBF=T FulRan=T
         wScrn=  0.000000 ICntrl=     500 IOpCl=  0 I1Cent=   200000004 NGrid=           0
         NMat0=    1 NMatS0=      1 NMatT0=    0 NMatD0=    1 NMtDS0=    0 NMtDT0=    0
 Symmetry not used in FoFCou.
 SCF Done:  E(RM05) =  -40.9122793732     A.U. after    7 cycles
            NFock=  7  Conv=0.54D-08     -V/T= 2.0127

 **********************************************************************

            Population analysis using the SCF density.

 **********************************************************************

 Alpha  occ. eigenvalues --  -10.74528  -0.82768  -0.48754  -0.48752  -0.48751
 Alpha virt. eigenvalues --   -0.00124   0.02407   0.02739   0.02897   0.04780
 Alpha virt. eigenvalues --    0.05115   0.05406   0.07084   0.07898   0.09254
 Alpha virt. eigenvalues --    0.09710   0.10699   0.10955   0.11649   0.12344
 Alpha virt. eigenvalues --    0.14377   0.14904   0.15694   0.16309   0.18306
 Alpha virt. eigenvalues --    0.20965   0.21964   0.22882   0.26141   0.26632
 Alpha virt. eigenvalues --    0.26961   0.27728   0.28282   0.28487   0.28783
 Alpha virt. eigenvalues --    0.29908   0.30289   0.30648   0.30964   0.32632
 Alpha virt. eigenvalues --    0.33543   0.34464   0.35103   0.35501   0.36064
 Alpha virt. eigenvalues --    0.36557   0.38626   0.39601   0.40338   0.41666
 Alpha virt. eigenvalues --    0.43425   0.44241   0.45226   0.46167   0.46265
 Alpha virt. eigenvalues --    0.48707   0.49302   0.49951   0.51050   0.53237
 Alpha virt. eigenvalues --    0.54040   0.55601   0.57489   0.60966   0.63957
 Alpha virt. eigenvalues --    0.64478   0.64765   0.66993   0.69922   0.70912
 Alpha virt. eigenvalues --    0.72358   0.73041   0.74740   0.75934   0.78743
 Alpha virt. eigenvalues --    0.80606   0.81055   0.84626   0.85608   0.87535
 Alpha virt. eigenvalues --    0.88470   0.89576   0.90275   0.90849   0.93150
 Alpha virt. eigenvalues --    0.93933   0.95591   0.96033   0.96939   0.97723
 Alpha virt. eigenvalues --    0.99688   1.00122   1.00763   1.01258   1.02279
 Alpha virt. eigenvalues --    1.02622   1.05483   1.07111   1.07208   1.08433
 Alpha virt. eigenvalues --    1.09321   1.10752   1.11029   1.11681   1.12700
 Alpha virt. eigenvalues --    1.14666   1.16812   1.18515   1.19338   1.20794
 Alpha virt. eigenvalues --    1.21144   1.22332   1.24321   1.26542   1.28308
 Alpha virt. eigenvalues --    1.29481   1.33163   1.33741   1.36349   1.38499
 Alpha virt. eigenvalues --    1.39437   1.41326   1.41843   1.46096   1.46603
 Alpha virt. eigenvalues --    1.46976   1.48375   1.51037   1.51950   1.55014
 Alpha virt. eigenvalues --    1.57945   1.60887   1.62677   1.65707   1.67249
 Alpha virt. eigenvalues --    1.69027   1.71217   1.73325   1.73729   1.75236
 Alpha virt. eigenvalues --    1.76364   1.80572   1.83036   1.83536   1.86591
 Alpha virt. eigenvalues --    1.88221   1.91333   1.94239   1.95253   1.96117
 Alpha virt. eigenvalues --    1.97454   1.98936   2.00540   2.02305   2.03272
 Alpha virt. eigenvalues --    2.07500   2.10127   2.14749   2.17815   2.18810
 Alpha virt. eigenvalues --    2.20183   2.30916   2.31963   2.37287   2.44131
 Alpha virt. eigenvalues --    2.47647   2.58962   2.64914   2.64945   2.73459
 Alpha virt. eigenvalues --    2.78609   2.82720   2.95346   2.98487   3.03279
 Alpha virt. eigenvalues --    3.22831   3.26222   3.27622   3.28856   3.30715
 Alpha virt. eigenvalues --    3.31365   3.35736   3.42220   3.60227   3.61023
 Alpha virt. eigenvalues --    3.69482   3.72007   3.72932   3.75031   3.76860
 Alpha virt. eigenvalues --    3.78600   3.79374   3.83848   3.86392   3.87043
 Alpha virt. eigenvalues --    3.89235   3.94513   4.01836   4.04470   4.06371
 Alpha virt. eigenvalues --    4.09046   4.12653   4.17777   4.18663   4.20628
 Alpha virt. eigenvalues --    4.24286   4.26276   4.29915   4.33193   4.34760
 Alpha virt. eigenvalues --    4.35730   4.40246   4.42898   4.43729   4.44864
 Alpha virt. eigenvalues --    4.47194   4.49501   4.51529   4.51912   4.52750
 Alpha virt. eigenvalues --    4.55382   4.55615   4.61295   4.62788   4.67899
 Alpha virt. eigenvalues --    4.75658   4.79338   4.81246   4.81708   4.82267
 Alpha virt. eigenvalues --    4.87863   4.93124   4.95394   5.00525   5.07899
 Alpha virt. eigenvalues --    5.13538   5.14888   5.15179   5.23524   5.23743
 Alpha virt. eigenvalues --    5.24673   5.26730   5.28220   5.32172   5.32985
 Alpha virt. eigenvalues --    5.35277   5.38313   5.41636   5.47316   5.52366
 Alpha virt. eigenvalues --    5.54111   5.54600   5.61579   5.66340   5.83550
 Alpha virt. eigenvalues --    6.07643   6.08624   6.08834   6.10248   6.11256
 Alpha virt. eigenvalues --    6.16154   6.18404   6.20336   6.76443   6.78593
 Alpha virt. eigenvalues --    6.82379   6.92000   7.59024   7.59527   7.65396
 Alpha virt. eigenvalues --    8.00875   8.03003   8.11143  10.38062  17.12394
 Alpha virt. eigenvalues --   52.58331
          Condensed to atoms (all electrons):
 Mulliken charges:
               1
     1  C   -0.007247
     2  H   -0.003073
     3  H    0.020022
     4  H    0.019977
     5  H    0.005648
     6  C   -1.946456
     7  H    0.409999
     8  H    0.403652
     9  H    0.647545
    10  H    0.449934
 Sum of Mulliken charges =  -0.00000
 Mulliken charges with hydrogens summed into heavy atoms:
               1
     1  C    0.035327
     6  C   -0.035327
 Electronic spatial extent (au):  <R**2>=            387.1017
 Charge=              0.0000 electrons
 Dipole moment (field-independent basis, Debye):
    X=             -0.0000    Y=              0.0002    Z=             -0.0001  Tot=              0.0003

 Test job not archived.
 1\1\GINC-CHIMERA-NODE47\SP\RM05\Gen\C2H8\CONNORNM\07-Dec-2018\0\\#T M0
 5/Gen test Massage SCF=(tight,maxcyc=40)\\M05 opt\\0,1\C,0,0.,0.,0.\H,
 0,0.14171821,0.,-1.09813565\H,0,-0.95493965,0.50211884,0.24890336\H,0,
 -0.02466042,-1.04366996,0.36895911\H,0,0.83788186,0.54155112,0.4802731
 8\C,0,0.,0.,3.13315712\H,0,0.89863137,-0.14882164,3.76268054\H,0,-0.72
 578054,0.63999838,3.67133056\H,0,0.29134005,0.49003206,2.18395983\H,0,
 -0.46419089,-0.9812088,2.91465757\\Version=AS64L-G09RevD.01\HF=-40.912
 2794\RMSD=5.371e-09\Dipole=-0.0000038,0.0000844,-0.0000511\Quadrupole=
 0.0003055,0.0004441,-0.0007496,0.0003146,0.0000895,0.0004061\PG=C01 [X
 (C2H8)]\\@


 EDUCATION IS NOT TRAINING BUT RATHER THE PROCESS THAT EQUIPS YOU TO
 ENTERTAIN YOURSELF, A FRIEND, OR AN IDEA.  -- WALLACE STERLING
 Job cpu time:       0 days  0 hours 13 minutes  2.5 seconds.
 File lengths (MBytes):  RWF=     41 Int=      0 D2E=      0 Chk=      4 Scr=      1
 Normal termination of Gaussian 09 at Fri Dec  7 14:02:49 2018.
