 Entering Gaussian System, Link 0=/data/szalewicgrp/connornm/opt/Gaussian/g09-M05-par/g09/g09
 AtFile(1): aug-cc-pVTZ.gbs
 Initial command:
 /data/szalewicgrp/connornm/opt/Gaussian/g09-M05-par/g09/l1.exe "/scratch/local/Gau-33319.inp" -scrdir="/scratch/local/"
 Entering Link 1 = /data/szalewicgrp/connornm/opt/Gaussian/g09-M05-par/g09/l1.exe PID=     33320.
  
 Copyright (c) 1988,1990,1992,1993,1995,1998,2003,2009,2013,
            Gaussian, Inc.  All Rights Reserved.
  
 This is part of the Gaussian(R) 09 program.  It is based on
 the Gaussian(R) 03 system (copyright 2003, Gaussian, Inc.),
 the Gaussian(R) 98 system (copyright 1998, Gaussian, Inc.),
 the Gaussian(R) 94 system (copyright 1995, Gaussian, Inc.),
 the Gaussian 92(TM) system (copyright 1992, Gaussian, Inc.),
 the Gaussian 90(TM) system (copyright 1990, Gaussian, Inc.),
 the Gaussian 88(TM) system (copyright 1988, Gaussian, Inc.),
 the Gaussian 86(TM) system (copyright 1986, Carnegie Mellon
 University), and the Gaussian 82(TM) system (copyright 1983,
 Carnegie Mellon University). Gaussian is a federally registered
 trademark of Gaussian, Inc.
  
 This software contains proprietary and confidential information,
 including trade secrets, belonging to Gaussian, Inc.
  
 This software is provided under written license and may be
 used, copied, transmitted, or stored only in accord with that
 written license.
  
 The following legend is applicable only to US Government
 contracts under FAR:
  
                    RESTRICTED RIGHTS LEGEND
  
 Use, reproduction and disclosure by the US Government is
 subject to restrictions as set forth in subparagraphs (a)
 and (c) of the Commercial Computer Software - Restricted
 Rights clause in FAR 52.227-19.
  
 Gaussian, Inc.
 340 Quinnipiac St., Bldg. 40, Wallingford CT 06492
  
  
 ---------------------------------------------------------------
 Warning -- This program may not be used in any manner that
 competes with the business of Gaussian, Inc. or will provide
 assistance to any competitor of Gaussian, Inc.  The licensee
 of this program is prohibited from giving any competitor of
 Gaussian, Inc. access to this program.  By using this program,
 the user acknowledges that Gaussian, Inc. is engaged in the
 business of creating and licensing software in the field of
 computational chemistry and represents and warrants to the
 licensee that it is not a competitor of Gaussian, Inc. and that
 it will not use this program in any manner prohibited above.
 ---------------------------------------------------------------
  

 Cite this work as:
 Gaussian 09, Revision D.01,
 M. J. Frisch, G. W. Trucks, H. B. Schlegel, G. E. Scuseria, 
 M. A. Robb, J. R. Cheeseman, G. Scalmani, V. Barone, B. Mennucci, 
 G. A. Petersson, H. Nakatsuji, M. Caricato, X. Li, H. P. Hratchian, 
 A. F. Izmaylov, J. Bloino, G. Zheng, J. L. Sonnenberg, M. Hada, 
 M. Ehara, K. Toyota, R. Fukuda, J. Hasegawa, M. Ishida, T. Nakajima, 
 Y. Honda, O. Kitao, H. Nakai, T. Vreven, J. A. Montgomery, Jr., 
 J. E. Peralta, F. Ogliaro, M. Bearpark, J. J. Heyd, E. Brothers, 
 K. N. Kudin, V. N. Staroverov, T. Keith, R. Kobayashi, J. Normand, 
 K. Raghavachari, A. Rendell, J. C. Burant, S. S. Iyengar, J. Tomasi, 
 M. Cossi, N. Rega, J. M. Millam, M. Klene, J. E. Knox, J. B. Cross, 
 V. Bakken, C. Adamo, J. Jaramillo, R. Gomperts, R. E. Stratmann, 
 O. Yazyev, A. J. Austin, R. Cammi, C. Pomelli, J. W. Ochterski, 
 R. L. Martin, K. Morokuma, V. G. Zakrzewski, G. A. Voth, 
 P. Salvador, J. J. Dannenberg, S. Dapprich, A. D. Daniels, 
 O. Farkas, J. B. Foresman, J. V. Ortiz, J. Cioslowski, 
 and D. J. Fox, Gaussian, Inc., Wallingford CT, 2013.
 
 ******************************************
 Gaussian 09:  AS64L-G09RevD.01 24-Apr-2013
                 8-Dec-2018 
 ******************************************
 %Chk=CH400024
 %Mem=2GB
 %NProcShared=16
 Will use up to   16 processors via shared memory.
 ---------------------------------------------
 #T M05/Gen test Massage SCF=(tight,maxcyc=40)
 ---------------------------------------------
 -------
 M05 opt
 -------
 Symbolic Z-matrix:
 Charge =  0 Multiplicity = 1
 6-Bq                  0.        0.        0. 
 1-Bq                  1.03372   0.       -0.39676 
 1-Bq                 -0.62717   0.68396  -0.60402 
 1-Bq                 -0.41552  -1.02497  -0.05261 
 1-Bq                  0.00898   0.341     1.05339 
 6                     0.        0.        5.02903 
 1                    -0.89136  -0.45807   4.55826 
 1                     0.61574   0.49274   4.25181 
 1                    -0.32208   0.75125   5.77594 
 1                     0.59771  -0.78591   5.53011 
 
                    Distance matrix (angstroms):
                    1          2          3          4          5
     1  C    0.000000
     2  H    1.107243   0.000000
     3  H    1.107243   1.808119   0.000000
     4  H    1.107242   1.808119   1.808119   0.000000
     5  H    1.107243   1.808119   1.808119   1.808119   0.000000
     6  C    5.029031   5.523383   5.708976   5.200602   3.990252
     7  H    4.667127   5.335537   5.293692   4.669889   3.705842
     8  H    4.324332   4.693265   5.016025   4.679206   3.259007
     9  H    5.833493   6.364339   6.387609   6.093904   4.751889
    10  H    5.617561   5.994622   6.425602   5.678950   4.653769
                    6          7          8          9         10
     6  C    0.000000
     7  H    1.107243   0.000000
     8  H    1.107242   1.808119   0.000000
     9  H    1.107243   1.808119   1.808119   0.000000
    10  H    1.107243   1.808119   1.808119   1.808119   0.000000
 Symmetry turned off by external request.
 This structure is nearly, but not quite of a higher symmetry.
 Consider Symm=Loose if the higher symmetry is desired.
 Framework group  C1[X(C2H8)]
 Deg. of freedom    24
 Rotational constants (GHZ):     76.6916055      2.4144450      2.4144450
   276 basis functions,   360 primitive gaussians,   310 cartesian basis functions
     5 alpha electrons        5 beta electrons
       nuclear repulsion energy        13.2261669921 Hartrees.
 IMHF & INEx in M05                  614413                  385587
 NAtoms=   10 NActive=   10 NUniq=   10 SFac= 1.00D+00 NAtFMM=   60 NAOKFM=F Big=F
 ExpMin= 2.53D-02 ExpMax= 8.24D+03 ExpMxC= 2.81D+02 IAcc=3 IRadAn=         5 AccDes= 0.00D+00
 Harris functional with IExCor= 1009 and IRadAn=       5 diagonalized for initial guess.
 HarFok:  IExCor= 1009 AccDes= 0.00D+00 IRadAn=         5 IDoV= 1 UseB2=F ITyADJ=14
 ICtDFT=  3500011 ScaDFX=  1.000000  1.000000  1.000000  1.000000
 FoFCou: FMM=F IPFlag=           0 FMFlag=      100000 FMFlg1=           0
         NFxFlg=           0 DoJE=T BraDBF=F KetDBF=T FulRan=T
         wScrn=  0.000000 ICntrl=     500 IOpCl=  0 I1Cent=   200000004 NGrid=           0
         NMat0=    1 NMatS0=      1 NMatT0=    0 NMatD0=    1 NMtDS0=    0 NMtDT0=    0
 Symmetry not used in FoFCou.
 SCF Done:  E(RM05) =  -40.9122088587     A.U. after    7 cycles
            NFock=  7  Conv=0.31D-08     -V/T= 2.0128

 **********************************************************************

            Population analysis using the SCF density.

 **********************************************************************

 Alpha  occ. eigenvalues --  -10.74528  -0.82767  -0.48751  -0.48751  -0.48751
 Alpha virt. eigenvalues --   -0.00108   0.02231   0.02868   0.02885   0.04345
 Alpha virt. eigenvalues --    0.04710   0.05361   0.06517   0.08537   0.09323
 Alpha virt. eigenvalues --    0.09485   0.09940   0.10898   0.11459   0.12396
 Alpha virt. eigenvalues --    0.12802   0.15264   0.15571   0.16131   0.16616
 Alpha virt. eigenvalues --    0.18828   0.22614   0.22815   0.24455   0.24649
 Alpha virt. eigenvalues --    0.26450   0.26562   0.27266   0.27797   0.28162
 Alpha virt. eigenvalues --    0.28696   0.29470   0.29922   0.30255   0.30827
 Alpha virt. eigenvalues --    0.31261   0.32610   0.33167   0.34295   0.34697
 Alpha virt. eigenvalues --    0.34865   0.35614   0.36448   0.37238   0.37650
 Alpha virt. eigenvalues --    0.38355   0.39807   0.41147   0.42609   0.43681
 Alpha virt. eigenvalues --    0.44824   0.45902   0.46837   0.48542   0.49205
 Alpha virt. eigenvalues --    0.53023   0.55740   0.56254   0.58250   0.60169
 Alpha virt. eigenvalues --    0.61410   0.63084   0.65936   0.66126   0.66851
 Alpha virt. eigenvalues --    0.69901   0.71783   0.72402   0.73279   0.77940
 Alpha virt. eigenvalues --    0.78309   0.79882   0.84534   0.84849   0.85559
 Alpha virt. eigenvalues --    0.86060   0.86611   0.90124   0.90741   0.93003
 Alpha virt. eigenvalues --    0.94045   0.94197   0.94986   0.95468   0.96012
 Alpha virt. eigenvalues --    0.96342   0.97599   0.98044   0.99061   1.00456
 Alpha virt. eigenvalues --    1.01717   1.02772   1.03137   1.03562   1.05418
 Alpha virt. eigenvalues --    1.05996   1.06352   1.07120   1.07817   1.08557
 Alpha virt. eigenvalues --    1.08895   1.10119   1.10573   1.10613   1.11318
 Alpha virt. eigenvalues --    1.12830   1.14912   1.16458   1.16806   1.20535
 Alpha virt. eigenvalues --    1.22909   1.23251   1.23980   1.25991   1.27874
 Alpha virt. eigenvalues --    1.30092   1.37295   1.37851   1.38423   1.38568
 Alpha virt. eigenvalues --    1.40888   1.43713   1.44271   1.45626   1.46312
 Alpha virt. eigenvalues --    1.47005   1.47456   1.48569   1.50260   1.56868
 Alpha virt. eigenvalues --    1.56960   1.60215   1.66197   1.67269   1.68955
 Alpha virt. eigenvalues --    1.70004   1.70033   1.71396   1.75557   1.77114
 Alpha virt. eigenvalues --    1.79137   1.83008   1.83426   1.84438   1.92411
 Alpha virt. eigenvalues --    1.94014   1.94385   1.95459   2.01738   2.02161
 Alpha virt. eigenvalues --    2.03488   2.04346   2.04613   2.05726   2.06502
 Alpha virt. eigenvalues --    2.09579   2.25721   2.25976   2.30333   2.36016
 Alpha virt. eigenvalues --    2.44789   2.45582   2.64378   2.67871   2.68134
 Alpha virt. eigenvalues --    2.73161   2.81487   2.86469   2.87060   2.88510
 Alpha virt. eigenvalues --    3.17509   3.21125   3.21511   3.21712   3.24081
 Alpha virt. eigenvalues --    3.25353   3.27019   3.30252   3.57164   3.57478
 Alpha virt. eigenvalues --    3.57906   3.69195   3.70969   3.71200   3.71646
 Alpha virt. eigenvalues --    3.72095   3.72529   3.75818   3.80369   3.81509
 Alpha virt. eigenvalues --    3.82450   3.99516   3.99989   4.00263   4.03111
 Alpha virt. eigenvalues --    4.04575   4.06372   4.15898   4.16447   4.17687
 Alpha virt. eigenvalues --    4.17971   4.19602   4.31494   4.34325   4.35484
 Alpha virt. eigenvalues --    4.35614   4.36234   4.36667   4.37124   4.38519
 Alpha virt. eigenvalues --    4.41223   4.41704   4.44536   4.49759   4.49872
 Alpha virt. eigenvalues --    4.50041   4.52929   4.53329   4.59704   4.60639
 Alpha virt. eigenvalues --    4.62181   4.74855   4.77143   4.78484   4.78667
 Alpha virt. eigenvalues --    4.78810   4.92060   4.92308   4.92441   5.14024
 Alpha virt. eigenvalues --    5.14538   5.14686   5.15598   5.16076   5.16513
 Alpha virt. eigenvalues --    5.21712   5.29634   5.29849   5.30863   5.32055
 Alpha virt. eigenvalues --    5.32534   5.41394   5.41944   5.47568   5.48493
 Alpha virt. eigenvalues --    5.48555   5.53577   5.57130   5.57837   5.58121
 Alpha virt. eigenvalues --    6.03299   6.03665   6.04481   6.13973   6.14105
 Alpha virt. eigenvalues --    6.14625   6.24580   6.24615   6.80210   6.80524
 Alpha virt. eigenvalues --    6.86618   6.97569   7.65796   7.66165   7.66700
 Alpha virt. eigenvalues --    8.01903   8.03318   8.05470  10.30492  16.54405
 Alpha virt. eigenvalues --   52.27493
          Condensed to atoms (all electrons):
 Mulliken charges:
               1
     1  C    0.002284
     2  H   -0.000010
     3  H    0.000313
     4  H    0.000247
     5  H   -0.001251
     6  C   -1.786965
     7  H    0.434701
     8  H    0.476772
     9  H    0.436580
    10  H    0.437330
 Sum of Mulliken charges =   0.00000
 Mulliken charges with hydrogens summed into heavy atoms:
               1
     1  C    0.001583
     6  C   -0.001583
 Electronic spatial extent (au):  <R**2>=            939.7062
 Charge=             -0.0000 electrons
 Dipole moment (field-independent basis, Debye):
    X=              0.0000    Y=              0.0000    Z=              0.0002  Tot=              0.0002

 Test job not archived.
 1\1\GINC-CHIMERA-NODE15\SP\RM05\Gen\C2H8\CONNORNM\08-Dec-2018\0\\#T M0
 5/Gen test Massage SCF=(tight,maxcyc=40)\\M05 opt\\0,1\C,0,0.,0.,0.\H,
 0,1.03371575,0.,-0.39675901\H,0,-0.62716705,0.68396418,-0.60402024\H,0
 ,-0.41552451,-1.02496724,-0.05260686\H,0,0.00897582,0.34100307,1.05338
 611\C,0,0.,0.,5.02903084\H,0,-0.89136265,-0.45807404,4.55825832\H,0,0.
 61573545,0.49273795,4.25181458\H,0,-0.32208055,0.75124616,5.77594401\H
 ,0,0.59770774,-0.78591007,5.53010646\\Version=AS64L-G09RevD.01\HF=-40.
 9122089\RMSD=3.065e-09\Dipole=0.0000154,0.0000148,0.0000613\Quadrupole
 =-0.0003064,-0.0004465,0.0007529,0.0002921,0.0003378,0.0001892\PG=C01 
 [X(C2H8)]\\@


 WE THE UNWILLING
 LED BY THE UNQUALIFIED
 HAVE BEEN DOING THE UNBELIEVABLE SO LONG WITH SO LITTLE
 THAT WE NOW ATTEMPT THE IMPOSSIBLE WITH NOTHING.

                                    -- ANONYMOUS
 Job cpu time:       0 days  0 hours  9 minutes 37.1 seconds.
 File lengths (MBytes):  RWF=     41 Int=      0 D2E=      0 Chk=      4 Scr=      1
 Normal termination of Gaussian 09 at Sat Dec  8 10:20:47 2018.
