 Entering Gaussian System, Link 0=/data/szalewicgrp/connornm/opt/Gaussian/g09-M05-par/g09/g09
 AtFile(1): aug-cc-pVTZ.gbs
 Initial command:
 /data/szalewicgrp/connornm/opt/Gaussian/g09-M05-par/g09/l1.exe "/scratch/local/Gau-14398.inp" -scrdir="/scratch/local/"
 Entering Link 1 = /data/szalewicgrp/connornm/opt/Gaussian/g09-M05-par/g09/l1.exe PID=     14399.
  
 Copyright (c) 1988,1990,1992,1993,1995,1998,2003,2009,2013,
            Gaussian, Inc.  All Rights Reserved.
  
 This is part of the Gaussian(R) 09 program.  It is based on
 the Gaussian(R) 03 system (copyright 2003, Gaussian, Inc.),
 the Gaussian(R) 98 system (copyright 1998, Gaussian, Inc.),
 the Gaussian(R) 94 system (copyright 1995, Gaussian, Inc.),
 the Gaussian 92(TM) system (copyright 1992, Gaussian, Inc.),
 the Gaussian 90(TM) system (copyright 1990, Gaussian, Inc.),
 the Gaussian 88(TM) system (copyright 1988, Gaussian, Inc.),
 the Gaussian 86(TM) system (copyright 1986, Carnegie Mellon
 University), and the Gaussian 82(TM) system (copyright 1983,
 Carnegie Mellon University). Gaussian is a federally registered
 trademark of Gaussian, Inc.
  
 This software contains proprietary and confidential information,
 including trade secrets, belonging to Gaussian, Inc.
  
 This software is provided under written license and may be
 used, copied, transmitted, or stored only in accord with that
 written license.
  
 The following legend is applicable only to US Government
 contracts under FAR:
  
                    RESTRICTED RIGHTS LEGEND
  
 Use, reproduction and disclosure by the US Government is
 subject to restrictions as set forth in subparagraphs (a)
 and (c) of the Commercial Computer Software - Restricted
 Rights clause in FAR 52.227-19.
  
 Gaussian, Inc.
 340 Quinnipiac St., Bldg. 40, Wallingford CT 06492
  
  
 ---------------------------------------------------------------
 Warning -- This program may not be used in any manner that
 competes with the business of Gaussian, Inc. or will provide
 assistance to any competitor of Gaussian, Inc.  The licensee
 of this program is prohibited from giving any competitor of
 Gaussian, Inc. access to this program.  By using this program,
 the user acknowledges that Gaussian, Inc. is engaged in the
 business of creating and licensing software in the field of
 computational chemistry and represents and warrants to the
 licensee that it is not a competitor of Gaussian, Inc. and that
 it will not use this program in any manner prohibited above.
 ---------------------------------------------------------------
  

 Cite this work as:
 Gaussian 09, Revision D.01,
 M. J. Frisch, G. W. Trucks, H. B. Schlegel, G. E. Scuseria, 
 M. A. Robb, J. R. Cheeseman, G. Scalmani, V. Barone, B. Mennucci, 
 G. A. Petersson, H. Nakatsuji, M. Caricato, X. Li, H. P. Hratchian, 
 A. F. Izmaylov, J. Bloino, G. Zheng, J. L. Sonnenberg, M. Hada, 
 M. Ehara, K. Toyota, R. Fukuda, J. Hasegawa, M. Ishida, T. Nakajima, 
 Y. Honda, O. Kitao, H. Nakai, T. Vreven, J. A. Montgomery, Jr., 
 J. E. Peralta, F. Ogliaro, M. Bearpark, J. J. Heyd, E. Brothers, 
 K. N. Kudin, V. N. Staroverov, T. Keith, R. Kobayashi, J. Normand, 
 K. Raghavachari, A. Rendell, J. C. Burant, S. S. Iyengar, J. Tomasi, 
 M. Cossi, N. Rega, J. M. Millam, M. Klene, J. E. Knox, J. B. Cross, 
 V. Bakken, C. Adamo, J. Jaramillo, R. Gomperts, R. E. Stratmann, 
 O. Yazyev, A. J. Austin, R. Cammi, C. Pomelli, J. W. Ochterski, 
 R. L. Martin, K. Morokuma, V. G. Zakrzewski, G. A. Voth, 
 P. Salvador, J. J. Dannenberg, S. Dapprich, A. D. Daniels, 
 O. Farkas, J. B. Foresman, J. V. Ortiz, J. Cioslowski, 
 and D. J. Fox, Gaussian, Inc., Wallingford CT, 2013.
 
 ******************************************
 Gaussian 09:  AS64L-G09RevD.01 24-Apr-2013
                 8-Dec-2018 
 ******************************************
 %Chk=CH400030
 %Mem=2GB
 %NProcShared=16
 Will use up to   16 processors via shared memory.
 ---------------------------------------------
 #T M05/Gen test Massage SCF=(tight,maxcyc=40)
 ---------------------------------------------
 -------
 M05 opt
 -------
 Symbolic Z-matrix:
 Charge =  0 Multiplicity = 1
 6-Bq                  0.        0.        0. 
 1-Bq                  1.08888   0.       -0.20083 
 1-Bq                 -0.17661  -0.18487   1.07732 
 1-Bq                 -0.4271    0.98221  -0.2808 
 1-Bq                 -0.48517  -0.79733  -0.59569 
 6                     0.        0.        3.03416 
 1                     0.72499   0.43281   3.75044 
 1                    -0.75879   0.76223   2.77107 
 1                     0.533    -0.32161   2.11848 
 1                    -0.49919  -0.87344   3.49666 
 
                    Distance matrix (angstroms):
                    1          2          3          4          5
     1  C    0.000000
     2  H    1.107243   0.000000
     3  H    1.107242   1.808119   0.000000
     4  H    1.107243   1.808119   1.808119   0.000000
     5  H    1.107243   1.808119   1.808119   1.808119   0.000000
     6  C    3.034164   3.413331   1.973476   3.483693   3.747932
     7  H    3.844314   3.991526   2.887904   4.228479   4.676178
     8  H    2.972471   3.581487   2.026013   3.077710   3.720511
     9  H    2.208051   2.406583   1.267383   2.894522   2.937642
    10  H    3.638505   4.117799   2.536019   4.209252   4.093085
                    6          7          8          9         10
     6  C    0.000000
     7  H    1.107242   0.000000
     8  H    1.107243   1.808119   0.000000
     9  H    1.107243   1.808119   1.808119   0.000000
    10  H    1.107243   1.808119   1.808119   1.808119   0.000000
 Symmetry turned off by external request.
 This structure is nearly, but not quite of a higher symmetry.
 Consider Symm=Loose if the higher symmetry is desired.
 Framework group  C1[X(C2H8)]
 Deg. of freedom    24
 Rotational constants (GHZ):     76.6916054      6.2871355      6.2871355
   276 basis functions,   360 primitive gaussians,   310 cartesian basis functions
     5 alpha electrons        5 beta electrons
       nuclear repulsion energy        13.2261669903 Hartrees.
 IMHF & INEx in M05                  614413                  385587
 NAtoms=   10 NActive=   10 NUniq=   10 SFac= 1.00D+00 NAtFMM=   60 NAOKFM=F Big=F
 ExpMin= 2.53D-02 ExpMax= 8.24D+03 ExpMxC= 2.81D+02 IAcc=3 IRadAn=         5 AccDes= 0.00D+00
 Harris functional with IExCor= 1009 and IRadAn=       5 diagonalized for initial guess.
 HarFok:  IExCor= 1009 AccDes= 0.00D+00 IRadAn=         5 IDoV= 1 UseB2=F ITyADJ=14
 ICtDFT=  3500011 ScaDFX=  1.000000  1.000000  1.000000  1.000000
 FoFCou: FMM=F IPFlag=           0 FMFlag=      100000 FMFlg1=           0
         NFxFlg=           0 DoJE=T BraDBF=F KetDBF=T FulRan=T
         wScrn=  0.000000 ICntrl=     500 IOpCl=  0 I1Cent=   200000004 NGrid=           0
         NMat0=    1 NMatS0=      1 NMatT0=    0 NMatD0=    1 NMtDS0=    0 NMtDT0=    0
 Symmetry not used in FoFCou.
 SCF Done:  E(RM05) =  -40.9123271664     A.U. after    8 cycles
            NFock=  8  Conv=0.18D-08     -V/T= 2.0127

 **********************************************************************

            Population analysis using the SCF density.

 **********************************************************************

 Alpha  occ. eigenvalues --  -10.74532  -0.82770  -0.48757  -0.48753  -0.48752
 Alpha virt. eigenvalues --   -0.00138   0.02469   0.02754   0.02835   0.04870
 Alpha virt. eigenvalues --    0.04996   0.05625   0.06940   0.08160   0.08862
 Alpha virt. eigenvalues --    0.10047   0.10767   0.11186   0.11689   0.12802
 Alpha virt. eigenvalues --    0.13235   0.14716   0.15629   0.17301   0.18636
 Alpha virt. eigenvalues --    0.20816   0.22220   0.22881   0.25639   0.25962
 Alpha virt. eigenvalues --    0.26801   0.27768   0.28789   0.28893   0.29153
 Alpha virt. eigenvalues --    0.30048   0.30868   0.31731   0.31997   0.32851
 Alpha virt. eigenvalues --    0.33216   0.33737   0.35195   0.35487   0.36160
 Alpha virt. eigenvalues --    0.36685   0.38334   0.39530   0.41439   0.42916
 Alpha virt. eigenvalues --    0.43481   0.44100   0.44821   0.45670   0.46641
 Alpha virt. eigenvalues --    0.48110   0.49532   0.51808   0.53034   0.53660
 Alpha virt. eigenvalues --    0.54756   0.57326   0.58606   0.61173   0.61592
 Alpha virt. eigenvalues --    0.64112   0.65795   0.66624   0.68011   0.70438
 Alpha virt. eigenvalues --    0.71597   0.73140   0.74777   0.77842   0.78855
 Alpha virt. eigenvalues --    0.79873   0.80730   0.83433   0.84043   0.87193
 Alpha virt. eigenvalues --    0.89919   0.90457   0.92848   0.93570   0.94342
 Alpha virt. eigenvalues --    0.94364   0.96088   0.97611   0.97971   0.98765
 Alpha virt. eigenvalues --    1.00200   1.01163   1.01559   1.02625   1.04030
 Alpha virt. eigenvalues --    1.04650   1.05864   1.06956   1.07355   1.08077
 Alpha virt. eigenvalues --    1.10068   1.11434   1.11948   1.12827   1.15372
 Alpha virt. eigenvalues --    1.16928   1.18880   1.19344   1.20252   1.21039
 Alpha virt. eigenvalues --    1.23765   1.25436   1.26276   1.27540   1.31057
 Alpha virt. eigenvalues --    1.33042   1.34327   1.34716   1.36913   1.39788
 Alpha virt. eigenvalues --    1.40952   1.42162   1.43819   1.46131   1.47673
 Alpha virt. eigenvalues --    1.48510   1.49474   1.52255   1.53473   1.55462
 Alpha virt. eigenvalues --    1.57803   1.60252   1.61542   1.65992   1.67444
 Alpha virt. eigenvalues --    1.69524   1.73151   1.75322   1.77471   1.78389
 Alpha virt. eigenvalues --    1.79686   1.82428   1.84825   1.85994   1.90544
 Alpha virt. eigenvalues --    1.91848   1.94382   1.96877   1.98226   1.98510
 Alpha virt. eigenvalues --    2.00627   2.01158   2.02814   2.04841   2.08318
 Alpha virt. eigenvalues --    2.10450   2.11739   2.16145   2.18661   2.25479
 Alpha virt. eigenvalues --    2.27259   2.34054   2.35374   2.40441   2.47274
 Alpha virt. eigenvalues --    2.56988   2.62055   2.64418   2.65787   2.71908
 Alpha virt. eigenvalues --    2.86841   2.93876   2.97383   3.09009   3.11371
 Alpha virt. eigenvalues --    3.25841   3.29118   3.31991   3.34437   3.35588
 Alpha virt. eigenvalues --    3.36530   3.43929   3.57801   3.58658   3.60427
 Alpha virt. eigenvalues --    3.65512   3.71715   3.73567   3.75259   3.77332
 Alpha virt. eigenvalues --    3.77857   3.82943   3.83713   3.88097   3.89362
 Alpha virt. eigenvalues --    3.97928   3.99469   4.02470   4.07317   4.09369
 Alpha virt. eigenvalues --    4.12586   4.15734   4.19209   4.21411   4.22774
 Alpha virt. eigenvalues --    4.28516   4.30950   4.32824   4.32978   4.35150
 Alpha virt. eigenvalues --    4.36178   4.39244   4.44845   4.46215   4.47112
 Alpha virt. eigenvalues --    4.50988   4.53185   4.55485   4.57045   4.60524
 Alpha virt. eigenvalues --    4.64177   4.64795   4.66815   4.67848   4.74744
 Alpha virt. eigenvalues --    4.78906   4.80290   4.82463   4.83496   4.89325
 Alpha virt. eigenvalues --    4.92600   4.98240   5.00280   5.04997   5.12982
 Alpha virt. eigenvalues --    5.16249   5.18524   5.21123   5.23179   5.25918
 Alpha virt. eigenvalues --    5.27170   5.32183   5.35099   5.35557   5.37462
 Alpha virt. eigenvalues --    5.42366   5.43418   5.46852   5.51234   5.56000
 Alpha virt. eigenvalues --    5.57379   5.64847   5.72286   5.84365   5.93004
 Alpha virt. eigenvalues --    6.08049   6.08667   6.10276   6.14256   6.17300
 Alpha virt. eigenvalues --    6.21972   6.24193   6.64782   6.77980   6.79201
 Alpha virt. eigenvalues --    6.92318   7.07885   7.60938   7.63198   7.70448
 Alpha virt. eigenvalues --    7.97873   8.01873   8.21171  10.39993  17.40546
 Alpha virt. eigenvalues --   53.68748
          Condensed to atoms (all electrons):
 Mulliken charges:
               1
     1  C   -0.057058
     2  H    0.016579
     3  H    0.027102
     4  H   -0.014401
     5  H   -0.003165
     6  C   -2.080298
     7  H    0.390371
     8  H    0.450745
     9  H    0.819998
    10  H    0.450127
 Sum of Mulliken charges =  -0.00000
 Mulliken charges with hydrogens summed into heavy atoms:
               1
     1  C   -0.030943
     6  C    0.030943
 Electronic spatial extent (au):  <R**2>=            365.2995
 Charge=             -0.0000 electrons
 Dipole moment (field-independent basis, Debye):
    X=             -0.0001    Y=             -0.0001    Z=             -0.0001  Tot=              0.0002

 Test job not archived.
 1\1\GINC-CHIMERA-NODE56\SP\RM05\Gen\C2H8\CONNORNM\08-Dec-2018\0\\#T M0
 5/Gen test Massage SCF=(tight,maxcyc=40)\\M05 opt\\0,1\C,0,0.,0.,0.\H,
 0,1.08887745,0.,-0.20082793\H,0,-0.17660948,-0.18487059,1.07731978\H,0
 ,-0.42709511,0.98220556,-0.2807988\H,0,-0.48517286,-0.79733497,-0.5956
 9304\C,0,0.,0.,3.03416375\H,0,0.72498706,0.43280966,3.75044268\H,0,-0.
 75879214,0.7622343,2.7710681\H,0,0.53299594,-0.32160752,2.11848373\H,0
 ,-0.49919086,-0.87343644,3.49666048\\Version=AS64L-G09RevD.01\HF=-40.9
 123272\RMSD=1.764e-09\Dipole=-0.0000412,-0.0000466,-0.0000506\Quadrupo
 le=0.0002938,-0.000233,-0.0000609,0.0004074,-0.0002456,-0.0005608\PG=C
 01 [X(C2H8)]\\@


 A COMPUTER IS LIKE A HORSE, IT WILL SENSE WEAKNESS.
     -- GREG WETTSTEIN
 Job cpu time:       0 days  0 hours 14 minutes 30.6 seconds.
 File lengths (MBytes):  RWF=     41 Int=      0 D2E=      0 Chk=      4 Scr=      1
 Normal termination of Gaussian 09 at Sat Dec  8 13:48:01 2018.
