 Entering Gaussian System, Link 0=/data/szalewicgrp/connornm/opt/Gaussian/g09-M05-par/g09/g09
 AtFile(1): aug-cc-pVTZ.gbs
 Initial command:
 /data/szalewicgrp/connornm/opt/Gaussian/g09-M05-par/g09/l1.exe "/scratch/local/Gau-3251.inp" -scrdir="/scratch/local/"
 Entering Link 1 = /data/szalewicgrp/connornm/opt/Gaussian/g09-M05-par/g09/l1.exe PID=      3252.
  
 Copyright (c) 1988,1990,1992,1993,1995,1998,2003,2009,2013,
            Gaussian, Inc.  All Rights Reserved.
  
 This is part of the Gaussian(R) 09 program.  It is based on
 the Gaussian(R) 03 system (copyright 2003, Gaussian, Inc.),
 the Gaussian(R) 98 system (copyright 1998, Gaussian, Inc.),
 the Gaussian(R) 94 system (copyright 1995, Gaussian, Inc.),
 the Gaussian 92(TM) system (copyright 1992, Gaussian, Inc.),
 the Gaussian 90(TM) system (copyright 1990, Gaussian, Inc.),
 the Gaussian 88(TM) system (copyright 1988, Gaussian, Inc.),
 the Gaussian 86(TM) system (copyright 1986, Carnegie Mellon
 University), and the Gaussian 82(TM) system (copyright 1983,
 Carnegie Mellon University). Gaussian is a federally registered
 trademark of Gaussian, Inc.
  
 This software contains proprietary and confidential information,
 including trade secrets, belonging to Gaussian, Inc.
  
 This software is provided under written license and may be
 used, copied, transmitted, or stored only in accord with that
 written license.
  
 The following legend is applicable only to US Government
 contracts under FAR:
  
                    RESTRICTED RIGHTS LEGEND
  
 Use, reproduction and disclosure by the US Government is
 subject to restrictions as set forth in subparagraphs (a)
 and (c) of the Commercial Computer Software - Restricted
 Rights clause in FAR 52.227-19.
  
 Gaussian, Inc.
 340 Quinnipiac St., Bldg. 40, Wallingford CT 06492
  
  
 ---------------------------------------------------------------
 Warning -- This program may not be used in any manner that
 competes with the business of Gaussian, Inc. or will provide
 assistance to any competitor of Gaussian, Inc.  The licensee
 of this program is prohibited from giving any competitor of
 Gaussian, Inc. access to this program.  By using this program,
 the user acknowledges that Gaussian, Inc. is engaged in the
 business of creating and licensing software in the field of
 computational chemistry and represents and warrants to the
 licensee that it is not a competitor of Gaussian, Inc. and that
 it will not use this program in any manner prohibited above.
 ---------------------------------------------------------------
  

 Cite this work as:
 Gaussian 09, Revision D.01,
 M. J. Frisch, G. W. Trucks, H. B. Schlegel, G. E. Scuseria, 
 M. A. Robb, J. R. Cheeseman, G. Scalmani, V. Barone, B. Mennucci, 
 G. A. Petersson, H. Nakatsuji, M. Caricato, X. Li, H. P. Hratchian, 
 A. F. Izmaylov, J. Bloino, G. Zheng, J. L. Sonnenberg, M. Hada, 
 M. Ehara, K. Toyota, R. Fukuda, J. Hasegawa, M. Ishida, T. Nakajima, 
 Y. Honda, O. Kitao, H. Nakai, T. Vreven, J. A. Montgomery, Jr., 
 J. E. Peralta, F. Ogliaro, M. Bearpark, J. J. Heyd, E. Brothers, 
 K. N. Kudin, V. N. Staroverov, T. Keith, R. Kobayashi, J. Normand, 
 K. Raghavachari, A. Rendell, J. C. Burant, S. S. Iyengar, J. Tomasi, 
 M. Cossi, N. Rega, J. M. Millam, M. Klene, J. E. Knox, J. B. Cross, 
 V. Bakken, C. Adamo, J. Jaramillo, R. Gomperts, R. E. Stratmann, 
 O. Yazyev, A. J. Austin, R. Cammi, C. Pomelli, J. W. Ochterski, 
 R. L. Martin, K. Morokuma, V. G. Zakrzewski, G. A. Voth, 
 P. Salvador, J. J. Dannenberg, S. Dapprich, A. D. Daniels, 
 O. Farkas, J. B. Foresman, J. V. Ortiz, J. Cioslowski, 
 and D. J. Fox, Gaussian, Inc., Wallingford CT, 2013.
 
 ******************************************
 Gaussian 09:  AS64L-G09RevD.01 24-Apr-2013
                 7-Dec-2018 
 ******************************************
 %Chk=CH400295
 %Mem=2GB
 %NProcShared=16
 Will use up to   16 processors via shared memory.
 ---------------------------------------------
 #T M05/Gen test Massage SCF=(tight,maxcyc=40)
 ---------------------------------------------
 -------
 M05 opt
 -------
 Symbolic Z-matrix:
 Charge =  0 Multiplicity = 1
 6-Bq                  0.        0.        0. 
 1-Bq                  0.98292   0.        0.50976 
 1-Bq                 -0.21578   1.01525  -0.3856 
 1-Bq                  0.02122  -0.71804  -0.84259 
 1-Bq                 -0.78836  -0.29721   0.71843 
 6                     0.        0.        3.37694 
 1                     0.22216   0.90625   2.78084 
 1                     0.77578  -0.12836   4.15648 
 1                    -0.99168   0.1082    3.85741 
 1                    -0.00626  -0.8861    2.71303 
 
                    Distance matrix (angstroms):
                    1          2          3          4          5
     1  C    0.000000
     2  H    1.107243   0.000000
     3  H    1.107242   1.808119   0.000000
     4  H    1.107242   1.808119   1.808119   0.000000
     5  H    1.107243   1.808119   1.808119   1.808119   0.000000
     6  C    3.376938   3.030977   3.903077   4.280239   2.788818
     7  H    2.933206   2.560825   3.198438   3.975917   2.592874
     8  H    4.230201   3.654847   4.787641   5.089965   3.780898
     9  H    3.984313   3.888121   4.407711   4.878386   3.171577
    10  H    2.854073   2.572552   3.641503   3.559694   2.221910
                    6          7          8          9         10
     6  C    0.000000
     7  H    1.107242   0.000000
     8  H    1.107242   1.808119   0.000000
     9  H    1.107242   1.808119   1.808119   0.000000
    10  H    1.107243   1.808119   1.808119   1.808119   0.000000
 Symmetry turned off by external request.
 This structure is nearly, but not quite of a higher symmetry.
 Consider Symm=Loose if the higher symmetry is desired.
 Framework group  C1[X(C2H8)]
 Deg. of freedom    24
 Rotational constants (GHZ):     76.6916054      5.1570391      5.1570391
   276 basis functions,   360 primitive gaussians,   310 cartesian basis functions
     5 alpha electrons        5 beta electrons
       nuclear repulsion energy        13.2261670045 Hartrees.
 IMHF & INEx in M05                  614413                  385587
 NAtoms=   10 NActive=   10 NUniq=   10 SFac= 1.00D+00 NAtFMM=   60 NAOKFM=F Big=F
 ExpMin= 2.53D-02 ExpMax= 8.24D+03 ExpMxC= 2.81D+02 IAcc=3 IRadAn=         5 AccDes= 0.00D+00
 Harris functional with IExCor= 1009 and IRadAn=       5 diagonalized for initial guess.
 HarFok:  IExCor= 1009 AccDes= 0.00D+00 IRadAn=         5 IDoV= 1 UseB2=F ITyADJ=14
 ICtDFT=  3500011 ScaDFX=  1.000000  1.000000  1.000000  1.000000
 FoFCou: FMM=F IPFlag=           0 FMFlag=      100000 FMFlg1=           0
         NFxFlg=           0 DoJE=T BraDBF=F KetDBF=T FulRan=T
         wScrn=  0.000000 ICntrl=     500 IOpCl=  0 I1Cent=   200000004 NGrid=           0
         NMat0=    1 NMatS0=      1 NMatT0=    0 NMatD0=    1 NMtDS0=    0 NMtDT0=    0
 Symmetry not used in FoFCou.
 SCF Done:  E(RM05) =  -40.9122507165     A.U. after    7 cycles
            NFock=  7  Conv=0.44D-08     -V/T= 2.0127

 **********************************************************************

            Population analysis using the SCF density.

 **********************************************************************

 Alpha  occ. eigenvalues --  -10.74530  -0.82769  -0.48753  -0.48752  -0.48751
 Alpha virt. eigenvalues --   -0.00114   0.02408   0.02651   0.02765   0.04811
 Alpha virt. eigenvalues --    0.05090   0.05722   0.06206   0.08166   0.09462
 Alpha virt. eigenvalues --    0.10261   0.10709   0.10980   0.11256   0.12090
 Alpha virt. eigenvalues --    0.12363   0.15430   0.16156   0.16597   0.17998
 Alpha virt. eigenvalues --    0.20714   0.22376   0.23980   0.25100   0.25630
 Alpha virt. eigenvalues --    0.26515   0.27840   0.28173   0.28755   0.29135
 Alpha virt. eigenvalues --    0.29872   0.29980   0.30691   0.31091   0.31504
 Alpha virt. eigenvalues --    0.32318   0.33511   0.35062   0.35846   0.36324
 Alpha virt. eigenvalues --    0.37509   0.38360   0.39640   0.41099   0.41151
 Alpha virt. eigenvalues --    0.42464   0.43698   0.45049   0.46392   0.47380
 Alpha virt. eigenvalues --    0.48046   0.48390   0.49573   0.51829   0.52698
 Alpha virt. eigenvalues --    0.54362   0.55720   0.57366   0.57757   0.62724
 Alpha virt. eigenvalues --    0.64907   0.65340   0.66018   0.67548   0.68789
 Alpha virt. eigenvalues --    0.71300   0.73542   0.74221   0.75396   0.77347
 Alpha virt. eigenvalues --    0.79320   0.79526   0.84687   0.84793   0.86555
 Alpha virt. eigenvalues --    0.87780   0.88445   0.90902   0.91341   0.93346
 Alpha virt. eigenvalues --    0.93462   0.94975   0.96589   0.97559   0.98847
 Alpha virt. eigenvalues --    0.99222   0.99707   1.00902   1.01285   1.01793
 Alpha virt. eigenvalues --    1.04260   1.04438   1.05505   1.06153   1.06585
 Alpha virt. eigenvalues --    1.09167   1.09581   1.10207   1.11755   1.12678
 Alpha virt. eigenvalues --    1.13598   1.15508   1.16303   1.18745   1.20229
 Alpha virt. eigenvalues --    1.20935   1.23139   1.24543   1.25600   1.28149
 Alpha virt. eigenvalues --    1.30657   1.33640   1.35081   1.35314   1.37543
 Alpha virt. eigenvalues --    1.37744   1.39120   1.41308   1.43122   1.45133
 Alpha virt. eigenvalues --    1.47931   1.48678   1.49930   1.50770   1.52902
 Alpha virt. eigenvalues --    1.55276   1.57777   1.59270   1.60459   1.62005
 Alpha virt. eigenvalues --    1.66647   1.69622   1.70448   1.70974   1.72858
 Alpha virt. eigenvalues --    1.76030   1.78551   1.78994   1.81745   1.84066
 Alpha virt. eigenvalues --    1.85473   1.89997   1.91227   1.92152   1.95676
 Alpha virt. eigenvalues --    1.97203   1.99152   1.99935   2.00768   2.01957
 Alpha virt. eigenvalues --    2.04226   2.06686   2.08432   2.11746   2.15642
 Alpha virt. eigenvalues --    2.19837   2.27838   2.31945   2.34274   2.41646
 Alpha virt. eigenvalues --    2.44098   2.47822   2.66049   2.67134   2.67790
 Alpha virt. eigenvalues --    2.75331   2.82180   2.91370   2.93618   3.03838
 Alpha virt. eigenvalues --    3.22583   3.24269   3.27126   3.27329   3.29260
 Alpha virt. eigenvalues --    3.29970   3.33314   3.35893   3.58264   3.59472
 Alpha virt. eigenvalues --    3.61259   3.68790   3.71913   3.73618   3.74388
 Alpha virt. eigenvalues --    3.77061   3.79071   3.81195   3.83531   3.86627
 Alpha virt. eigenvalues --    3.88156   3.97133   3.98108   4.01856   4.05355
 Alpha virt. eigenvalues --    4.08868   4.17190   4.17522   4.19025   4.20820
 Alpha virt. eigenvalues --    4.21480   4.28312   4.32202   4.34602   4.34783
 Alpha virt. eigenvalues --    4.35196   4.39035   4.40010   4.41607   4.42819
 Alpha virt. eigenvalues --    4.45418   4.48061   4.49599   4.49948   4.52294
 Alpha virt. eigenvalues --    4.53645   4.56469   4.59066   4.61471   4.62836
 Alpha virt. eigenvalues --    4.68137   4.75686   4.79218   4.80512   4.82944
 Alpha virt. eigenvalues --    4.87037   4.89770   4.92112   4.98108   5.11877
 Alpha virt. eigenvalues --    5.12873   5.15641   5.17503   5.19629   5.23049
 Alpha virt. eigenvalues --    5.24374   5.26182   5.27171   5.30157   5.32236
 Alpha virt. eigenvalues --    5.34517   5.38841   5.44149   5.45411   5.47852
 Alpha virt. eigenvalues --    5.48980   5.51922   5.60395   5.61090   5.62339
 Alpha virt. eigenvalues --    6.06550   6.07501   6.10463   6.12522   6.13478
 Alpha virt. eigenvalues --    6.17079   6.20378   6.21200   6.78747   6.80180
 Alpha virt. eigenvalues --    6.83423   6.96502   7.60379   7.64257   7.66687
 Alpha virt. eigenvalues --    8.02309   8.04522   8.09548  10.27355  16.76099
 Alpha virt. eigenvalues --   52.30564
          Condensed to atoms (all electrons):
 Mulliken charges:
               1
     1  C    0.010697
     2  H    0.013443
     3  H    0.002153
     4  H    0.000110
     5  H    0.007717
     6  C   -1.866048
     7  H    0.481013
     8  H    0.413912
     9  H    0.462611
    10  H    0.474391
 Sum of Mulliken charges =   0.00000
 Mulliken charges with hydrogens summed into heavy atoms:
               1
     1  C    0.034120
     6  C   -0.034120
 Electronic spatial extent (au):  <R**2>=            443.7757
 Charge=              0.0000 electrons
 Dipole moment (field-independent basis, Debye):
    X=             -0.0001    Y=              0.0000    Z=              0.0001  Tot=              0.0001

 Test job not archived.
 1\1\GINC-CHIMERA-NODE60\SP\RM05\Gen\C2H8\CONNORNM\07-Dec-2018\0\\#T M0
 5/Gen test Massage SCF=(tight,maxcyc=40)\\M05 opt\\0,1\C,0,0.,0.,0.\H,
 0,0.98291812,0.,0.50976263\H,0,-0.21578208,1.01525099,-0.38560274\H,0,
 0.02122154,-0.71803709,-0.84259025\H,0,-0.78835757,-0.2972139,0.718430
 37\C,0,0.,0.,3.37693789\H,0,0.22215934,0.90625269,2.78083619\H,0,0.775
 77725,-0.12835714,4.15647625\H,0,-0.99167719,0.10820295,3.85741101\H,0
 ,-0.0062594,-0.88609851,2.71302809\\Version=AS64L-G09RevD.01\HF=-40.91
 22507\RMSD=4.358e-09\Dipole=-0.0000318,0.0000181,0.0000213\Quadrupole=
 -0.0007342,0.0001721,0.0005621,-0.000102,0.0000974,-0.0000809\PG=C01 [
 X(C2H8)]\\@


 Sacred cows make the best hamburger.
                               -- Mark Twain
 Job cpu time:       0 days  0 hours 12 minutes 31.6 seconds.
 File lengths (MBytes):  RWF=     41 Int=      0 D2E=      0 Chk=      4 Scr=      1
 Normal termination of Gaussian 09 at Fri Dec  7 14:02:55 2018.
