 Entering Gaussian System, Link 0=/data/szalewicgrp/connornm/opt/Gaussian/g09-M05-par/g09/g09
 AtFile(1): aug-cc-pVTZ.gbs
 Initial command:
 /data/szalewicgrp/connornm/opt/Gaussian/g09-M05-par/g09/l1.exe "/scratch/local/Gau-19070.inp" -scrdir="/scratch/local/"
 Entering Link 1 = /data/szalewicgrp/connornm/opt/Gaussian/g09-M05-par/g09/l1.exe PID=     19071.
  
 Copyright (c) 1988,1990,1992,1993,1995,1998,2003,2009,2013,
            Gaussian, Inc.  All Rights Reserved.
  
 This is part of the Gaussian(R) 09 program.  It is based on
 the Gaussian(R) 03 system (copyright 2003, Gaussian, Inc.),
 the Gaussian(R) 98 system (copyright 1998, Gaussian, Inc.),
 the Gaussian(R) 94 system (copyright 1995, Gaussian, Inc.),
 the Gaussian 92(TM) system (copyright 1992, Gaussian, Inc.),
 the Gaussian 90(TM) system (copyright 1990, Gaussian, Inc.),
 the Gaussian 88(TM) system (copyright 1988, Gaussian, Inc.),
 the Gaussian 86(TM) system (copyright 1986, Carnegie Mellon
 University), and the Gaussian 82(TM) system (copyright 1983,
 Carnegie Mellon University). Gaussian is a federally registered
 trademark of Gaussian, Inc.
  
 This software contains proprietary and confidential information,
 including trade secrets, belonging to Gaussian, Inc.
  
 This software is provided under written license and may be
 used, copied, transmitted, or stored only in accord with that
 written license.
  
 The following legend is applicable only to US Government
 contracts under FAR:
  
                    RESTRICTED RIGHTS LEGEND
  
 Use, reproduction and disclosure by the US Government is
 subject to restrictions as set forth in subparagraphs (a)
 and (c) of the Commercial Computer Software - Restricted
 Rights clause in FAR 52.227-19.
  
 Gaussian, Inc.
 340 Quinnipiac St., Bldg. 40, Wallingford CT 06492
  
  
 ---------------------------------------------------------------
 Warning -- This program may not be used in any manner that
 competes with the business of Gaussian, Inc. or will provide
 assistance to any competitor of Gaussian, Inc.  The licensee
 of this program is prohibited from giving any competitor of
 Gaussian, Inc. access to this program.  By using this program,
 the user acknowledges that Gaussian, Inc. is engaged in the
 business of creating and licensing software in the field of
 computational chemistry and represents and warrants to the
 licensee that it is not a competitor of Gaussian, Inc. and that
 it will not use this program in any manner prohibited above.
 ---------------------------------------------------------------
  

 Cite this work as:
 Gaussian 09, Revision D.01,
 M. J. Frisch, G. W. Trucks, H. B. Schlegel, G. E. Scuseria, 
 M. A. Robb, J. R. Cheeseman, G. Scalmani, V. Barone, B. Mennucci, 
 G. A. Petersson, H. Nakatsuji, M. Caricato, X. Li, H. P. Hratchian, 
 A. F. Izmaylov, J. Bloino, G. Zheng, J. L. Sonnenberg, M. Hada, 
 M. Ehara, K. Toyota, R. Fukuda, J. Hasegawa, M. Ishida, T. Nakajima, 
 Y. Honda, O. Kitao, H. Nakai, T. Vreven, J. A. Montgomery, Jr., 
 J. E. Peralta, F. Ogliaro, M. Bearpark, J. J. Heyd, E. Brothers, 
 K. N. Kudin, V. N. Staroverov, T. Keith, R. Kobayashi, J. Normand, 
 K. Raghavachari, A. Rendell, J. C. Burant, S. S. Iyengar, J. Tomasi, 
 M. Cossi, N. Rega, J. M. Millam, M. Klene, J. E. Knox, J. B. Cross, 
 V. Bakken, C. Adamo, J. Jaramillo, R. Gomperts, R. E. Stratmann, 
 O. Yazyev, A. J. Austin, R. Cammi, C. Pomelli, J. W. Ochterski, 
 R. L. Martin, K. Morokuma, V. G. Zakrzewski, G. A. Voth, 
 P. Salvador, J. J. Dannenberg, S. Dapprich, A. D. Daniels, 
 O. Farkas, J. B. Foresman, J. V. Ortiz, J. Cioslowski, 
 and D. J. Fox, Gaussian, Inc., Wallingford CT, 2013.
 
 ******************************************
 Gaussian 09:  AS64L-G09RevD.01 24-Apr-2013
                 8-Dec-2018 
 ******************************************
 %Chk=CH400288
 %Mem=2GB
 %NProcShared=16
 Will use up to   16 processors via shared memory.
 ---------------------------------------------
 #T M05/Gen test Massage SCF=(tight,maxcyc=40)
 ---------------------------------------------
 -------
 M05 opt
 -------
 Symbolic Z-matrix:
 Charge =  0 Multiplicity = 1
 6-Bq                  0.        0.        0. 
 1-Bq                  1.09903   0.       -0.13458 
 1-Bq                 -0.44078   0.84542  -0.563 
 1-Bq                 -0.41812  -0.95306  -0.37793 
 1-Bq                 -0.24014   0.10765   1.07551 
 6                     0.        0.        3.46802 
 1                    -0.5771   -0.61909   2.75411 
 1                     0.79857  -0.61414   3.92748 
 1                     0.45467   0.85513   2.93134 
 1                    -0.67614   0.37811   4.25913 
 
                    Distance matrix (angstroms):
                    1          2          3          4          5
     1  C    0.000000
     2  H    1.107243   0.000000
     3  H    1.107243   1.808119   0.000000
     4  H    1.107243   1.808119   1.808119   0.000000
     5  H    1.107243   1.808119   1.808119   1.808119   0.000000
     6  C    3.468016   3.766508   4.142236   3.984276   2.406930
     7  H    2.881221   3.396651   3.628579   3.153804   1.859939
     8  H    4.054625   4.119200   4.881672   4.486843   3.119871
     9  H    3.087192   3.247514   3.607270   3.870740   2.117921
    10  H    4.329007   4.753829   4.850435   4.831243   3.224692
                    6          7          8          9         10
     6  C    0.000000
     7  H    1.107243   0.000000
     8  H    1.107243   1.808119   0.000000
     9  H    1.107242   1.808119   1.808119   0.000000
    10  H    1.107242   1.808119   1.808119   1.808119   0.000000
 Symmetry turned off by external request.
 This structure is nearly, but not quite of a higher symmetry.
 Consider Symm=Loose if the higher symmetry is desired.
 Framework group  C1[X(C2H8)]
 Deg. of freedom    24
 Rotational constants (GHZ):     76.6916056      4.9068286      4.9068286
   276 basis functions,   360 primitive gaussians,   310 cartesian basis functions
     5 alpha electrons        5 beta electrons
       nuclear repulsion energy        13.2261669975 Hartrees.
 IMHF & INEx in M05                  614413                  385587
 NAtoms=   10 NActive=   10 NUniq=   10 SFac= 1.00D+00 NAtFMM=   60 NAOKFM=F Big=F
 ExpMin= 2.53D-02 ExpMax= 8.24D+03 ExpMxC= 2.81D+02 IAcc=3 IRadAn=         5 AccDes= 0.00D+00
 Harris functional with IExCor= 1009 and IRadAn=       5 diagonalized for initial guess.
 HarFok:  IExCor= 1009 AccDes= 0.00D+00 IRadAn=         5 IDoV= 1 UseB2=F ITyADJ=14
 ICtDFT=  3500011 ScaDFX=  1.000000  1.000000  1.000000  1.000000
 FoFCou: FMM=F IPFlag=           0 FMFlag=      100000 FMFlg1=           0
         NFxFlg=           0 DoJE=T BraDBF=F KetDBF=T FulRan=T
         wScrn=  0.000000 ICntrl=     500 IOpCl=  0 I1Cent=   200000004 NGrid=           0
         NMat0=    1 NMatS0=      1 NMatT0=    0 NMatD0=    1 NMtDS0=    0 NMtDT0=    0
 Symmetry not used in FoFCou.
 SCF Done:  E(RM05) =  -45.8800734160     A.U. after   10 cycles
            NFock= 10  Conv=0.75D-08     -V/T= 2.0334

 **********************************************************************

            Population analysis using the SCF density.

 **********************************************************************

 Alpha  occ. eigenvalues --  -12.05213  -0.99439  -0.71156  -0.71153  -0.71145
 Alpha virt. eigenvalues --   -0.08955  -0.01741  -0.01732  -0.01726  -0.00458
 Alpha virt. eigenvalues --   -0.00420  -0.00302   0.03056   0.03984   0.04833
 Alpha virt. eigenvalues --    0.05195   0.05973   0.06044   0.07122   0.08026
 Alpha virt. eigenvalues --    0.08358   0.09429   0.10934   0.12031   0.12839
 Alpha virt. eigenvalues --    0.15780   0.16713   0.18977   0.19817   0.20355
 Alpha virt. eigenvalues --    0.20960   0.21747   0.22065   0.22775   0.23482
 Alpha virt. eigenvalues --    0.23745   0.24600   0.25012   0.25267   0.26187
 Alpha virt. eigenvalues --    0.26716   0.27727   0.29087   0.29978   0.30194
 Alpha virt. eigenvalues --    0.33279   0.33961   0.34723   0.35809   0.37290
 Alpha virt. eigenvalues --    0.37545   0.37810   0.39308   0.40350   0.42383
 Alpha virt. eigenvalues --    0.42810   0.43616   0.44720   0.47189   0.48011
 Alpha virt. eigenvalues --    0.50684   0.51503   0.52310   0.52866   0.54216
 Alpha virt. eigenvalues --    0.56129   0.57111   0.57928   0.58431   0.59552
 Alpha virt. eigenvalues --    0.62847   0.63783   0.64735   0.64901   0.65248
 Alpha virt. eigenvalues --    0.67161   0.69008   0.71005   0.72061   0.72654
 Alpha virt. eigenvalues --    0.75465   0.77333   0.77595   0.78928   0.79810
 Alpha virt. eigenvalues --    0.80212   0.81550   0.85653   0.87506   0.88064
 Alpha virt. eigenvalues --    0.89967   0.91439   0.91489   0.92983   0.94422
 Alpha virt. eigenvalues --    0.95041   0.96215   0.97200   0.99193   1.02058
 Alpha virt. eigenvalues --    1.02554   1.03837   1.04278   1.05399   1.06251
 Alpha virt. eigenvalues --    1.08096   1.09586   1.10392   1.11746   1.13147
 Alpha virt. eigenvalues --    1.14296   1.16445   1.18315   1.20049   1.21187
 Alpha virt. eigenvalues --    1.23003   1.23730   1.24986   1.25725   1.26415
 Alpha virt. eigenvalues --    1.26893   1.27953   1.30501   1.32117   1.33410
 Alpha virt. eigenvalues --    1.35469   1.36018   1.36863   1.38402   1.40113
 Alpha virt. eigenvalues --    1.42997   1.44297   1.45960   1.47329   1.49243
 Alpha virt. eigenvalues --    1.51372   1.51561   1.57369   1.57895   1.60683
 Alpha virt. eigenvalues --    1.63860   1.66966   1.69549   1.72901   1.74642
 Alpha virt. eigenvalues --    1.78028   1.79673   1.80997   1.86256   1.87614
 Alpha virt. eigenvalues --    1.90005   1.92436   1.93095   1.94733   1.98125
 Alpha virt. eigenvalues --    2.01766   2.03364   2.05338   2.06523   2.09901
 Alpha virt. eigenvalues --    2.12638   2.17709   2.26255   2.31141   2.35269
 Alpha virt. eigenvalues --    2.39657   2.44835   2.49562   2.51234   2.60887
 Alpha virt. eigenvalues --    2.64310   2.66548   2.67974   2.70640   2.90836
 Alpha virt. eigenvalues --    3.00145   3.00824   3.02861   3.04684   3.11161
 Alpha virt. eigenvalues --    3.13051   3.16849   3.23508   3.23636   3.25283
 Alpha virt. eigenvalues --    3.36852   3.44446   3.46827   3.47658   3.47872
 Alpha virt. eigenvalues --    3.53511   3.54983   3.56548   3.58169   3.63029
 Alpha virt. eigenvalues --    3.80760   3.90554   3.91560   3.92510   3.96385
 Alpha virt. eigenvalues --    3.98210   3.99923   4.01909   4.02822   4.06683
 Alpha virt. eigenvalues --    4.09134   4.11280   4.12810   4.13256   4.15626
 Alpha virt. eigenvalues --    4.19064   4.22439   4.24712   4.28188   4.30949
 Alpha virt. eigenvalues --    4.34528   4.35392   4.37318   4.39460   4.42525
 Alpha virt. eigenvalues --    4.44303   4.47116   4.49103   4.51971   4.54605
 Alpha virt. eigenvalues --    4.56608   4.58842   4.59586   4.62395   4.73278
 Alpha virt. eigenvalues --    4.81063   4.84306   4.87857   4.88952   4.89690
 Alpha virt. eigenvalues --    4.90411   4.91724   4.95859   5.02326   5.05295
 Alpha virt. eigenvalues --    5.12101   5.13754   5.17947   5.18564   5.19282
 Alpha virt. eigenvalues --    5.26898   5.28893   5.29804   5.33648   5.41571
 Alpha virt. eigenvalues --    5.43477   5.46868   5.47415   5.49904   5.61810
 Alpha virt. eigenvalues --    5.65367   5.70864   5.73706   6.12349   6.12607
 Alpha virt. eigenvalues --    6.14097   6.20706   6.20958   6.78647   6.80297
 Alpha virt. eigenvalues --    6.94334   6.95574   7.60842   7.67023   7.68568
 Alpha virt. eigenvalues --    8.02886   8.06842   8.14618  10.38062  15.06966
 Alpha virt. eigenvalues --   53.32415
          Condensed to atoms (all electrons):
 Mulliken charges:
               1
     1  C    0.031763
     2  H   -0.002653
     3  H    0.007165
     4  H    0.002922
     5  H    0.129649
     6  C    0.249279
     7  H    0.069471
     8  H   -0.171672
     9  H   -0.044170
    10  H   -0.271755
 Sum of Mulliken charges =  -0.00000
 Mulliken charges with hydrogens summed into heavy atoms:
               1
     1  C    0.168846
     6  C   -0.168846
 Electronic spatial extent (au):  <R**2>=            465.0903
 Charge=             -0.0000 electrons
 Dipole moment (field-independent basis, Debye):
    X=             -0.0001    Y=             -0.0002    Z=             -0.0006  Tot=              0.0006

 Test job not archived.
 1\1\GINC-CHIMERA-NODE31\SP\RM05\Gen\C2H8\CONNORNM\08-Dec-2018\0\\#T M0
 5/Gen test Massage SCF=(tight,maxcyc=40)\\M05 opt\\0,1\C,0,0.,0.,0.\H,
 0,1.09903305,0.,-0.134582\H,0,-0.44078016,0.84541539,-0.56300233\H,0,-
 0.41811722,-0.95306473,-0.37793064\H,0,-0.24013566,0.10764933,1.075514
 97\C,0,0.,0.,3.46801559\H,0,-0.57710338,-0.61909087,2.75410793\H,0,0.7
 9856625,-0.61414119,3.92748105\H,0,0.45467491,0.85512639,2.93134481\H,
 0,-0.67613778,0.37810566,4.25912858\\Version=AS64L-G09RevD.01\HF=-45.8
 800734\RMSD=7.464e-09\Dipole=-0.0000518,-0.0000615,-0.0002211\Quadrupo
 le=-0.0005419,-0.0011575,0.0016994,-0.0010411,-0.000743,-0.0015185\PG=
 C01 [X(C2H8)]\\@


 Some scientists claim that hydrogen, because it is so
 plentiful, is the basic building block of the universe. 
 I dispute that. I say that stupidity is far more
 abundant than hydrogen, and THAT is the basic building 
 block of the universe.
                   --Frank Zappa
 Job cpu time:       0 days  0 hours 17 minutes  9.1 seconds.
 File lengths (MBytes):  RWF=     41 Int=      0 D2E=      0 Chk=      4 Scr=      1
 Normal termination of Gaussian 09 at Sat Dec  8 14:12:07 2018.
