 Entering Gaussian System, Link 0=/data/szalewicgrp/connornm/opt/Gaussian/g09-M05-par/g09/g09
 AtFile(1): aug-cc-pVTZ.gbs
 Initial command:
 /data/szalewicgrp/connornm/opt/Gaussian/g09-M05-par/g09/l1.exe "/scratch/local/Gau-13427.inp" -scrdir="/scratch/local/"
 Entering Link 1 = /data/szalewicgrp/connornm/opt/Gaussian/g09-M05-par/g09/l1.exe PID=     13428.
  
 Copyright (c) 1988,1990,1992,1993,1995,1998,2003,2009,2013,
            Gaussian, Inc.  All Rights Reserved.
  
 This is part of the Gaussian(R) 09 program.  It is based on
 the Gaussian(R) 03 system (copyright 2003, Gaussian, Inc.),
 the Gaussian(R) 98 system (copyright 1998, Gaussian, Inc.),
 the Gaussian(R) 94 system (copyright 1995, Gaussian, Inc.),
 the Gaussian 92(TM) system (copyright 1992, Gaussian, Inc.),
 the Gaussian 90(TM) system (copyright 1990, Gaussian, Inc.),
 the Gaussian 88(TM) system (copyright 1988, Gaussian, Inc.),
 the Gaussian 86(TM) system (copyright 1986, Carnegie Mellon
 University), and the Gaussian 82(TM) system (copyright 1983,
 Carnegie Mellon University). Gaussian is a federally registered
 trademark of Gaussian, Inc.
  
 This software contains proprietary and confidential information,
 including trade secrets, belonging to Gaussian, Inc.
  
 This software is provided under written license and may be
 used, copied, transmitted, or stored only in accord with that
 written license.
  
 The following legend is applicable only to US Government
 contracts under FAR:
  
                    RESTRICTED RIGHTS LEGEND
  
 Use, reproduction and disclosure by the US Government is
 subject to restrictions as set forth in subparagraphs (a)
 and (c) of the Commercial Computer Software - Restricted
 Rights clause in FAR 52.227-19.
  
 Gaussian, Inc.
 340 Quinnipiac St., Bldg. 40, Wallingford CT 06492
  
  
 ---------------------------------------------------------------
 Warning -- This program may not be used in any manner that
 competes with the business of Gaussian, Inc. or will provide
 assistance to any competitor of Gaussian, Inc.  The licensee
 of this program is prohibited from giving any competitor of
 Gaussian, Inc. access to this program.  By using this program,
 the user acknowledges that Gaussian, Inc. is engaged in the
 business of creating and licensing software in the field of
 computational chemistry and represents and warrants to the
 licensee that it is not a competitor of Gaussian, Inc. and that
 it will not use this program in any manner prohibited above.
 ---------------------------------------------------------------
  

 Cite this work as:
 Gaussian 09, Revision D.01,
 M. J. Frisch, G. W. Trucks, H. B. Schlegel, G. E. Scuseria, 
 M. A. Robb, J. R. Cheeseman, G. Scalmani, V. Barone, B. Mennucci, 
 G. A. Petersson, H. Nakatsuji, M. Caricato, X. Li, H. P. Hratchian, 
 A. F. Izmaylov, J. Bloino, G. Zheng, J. L. Sonnenberg, M. Hada, 
 M. Ehara, K. Toyota, R. Fukuda, J. Hasegawa, M. Ishida, T. Nakajima, 
 Y. Honda, O. Kitao, H. Nakai, T. Vreven, J. A. Montgomery, Jr., 
 J. E. Peralta, F. Ogliaro, M. Bearpark, J. J. Heyd, E. Brothers, 
 K. N. Kudin, V. N. Staroverov, T. Keith, R. Kobayashi, J. Normand, 
 K. Raghavachari, A. Rendell, J. C. Burant, S. S. Iyengar, J. Tomasi, 
 M. Cossi, N. Rega, J. M. Millam, M. Klene, J. E. Knox, J. B. Cross, 
 V. Bakken, C. Adamo, J. Jaramillo, R. Gomperts, R. E. Stratmann, 
 O. Yazyev, A. J. Austin, R. Cammi, C. Pomelli, J. W. Ochterski, 
 R. L. Martin, K. Morokuma, V. G. Zakrzewski, G. A. Voth, 
 P. Salvador, J. J. Dannenberg, S. Dapprich, A. D. Daniels, 
 O. Farkas, J. B. Foresman, J. V. Ortiz, J. Cioslowski, 
 and D. J. Fox, Gaussian, Inc., Wallingford CT, 2013.
 
 ******************************************
 Gaussian 09:  AS64L-G09RevD.01 24-Apr-2013
                 8-Dec-2018 
 ******************************************
 %Chk=CH400188
 %Mem=2GB
 %NProcShared=16
 Will use up to   16 processors via shared memory.
 ---------------------------------------------
 #T M05/Gen test Massage SCF=(tight,maxcyc=40)
 ---------------------------------------------
 -------
 M05 opt
 -------
 Symbolic Z-matrix:
 Charge =  0 Multiplicity = 1
 6-Bq                  0.        0.        0. 
 1-Bq                  0.95739   0.        0.55623 
 1-Bq                 -0.70871   0.69881   0.48515 
 1-Bq                  0.17968   0.32221  -1.04397 
 1-Bq                 -0.42836  -1.02102   0.0026 
 6                     0.        0.        3.7363 
 1                    -0.51768  -0.97853   3.75816 
 1                    -0.61678   0.73149   3.17908 
 1                     0.15327   0.35968   4.77222 
 1                     0.98119  -0.11265   3.23575 
 
                    Distance matrix (angstroms):
                    1          2          3          4          5
     1  C    0.000000
     2  H    1.107243   0.000000
     3  H    1.107243   1.808119   0.000000
     4  H    1.107242   1.808119   1.808119   0.000000
     5  H    1.107243   1.808119   1.808119   1.808119   0.000000
     6  C    3.736300   3.321065   3.400085   4.794489   3.894422
     7  H    3.917814   3.658652   3.682734   5.023814   3.756864
     8  H    3.319946   3.145228   2.695694   4.316948   3.632745
     9  H    4.788205   4.307037   4.385994   5.816371   4.999391
    10  H    3.383118   2.681994   3.328667   4.375790   3.642149
                    6          7          8          9         10
     6  C    0.000000
     7  H    1.107242   0.000000
     8  H    1.107243   1.808119   0.000000
     9  H    1.107243   1.808119   1.808119   0.000000
    10  H    1.107242   1.808119   1.808119   1.808119   0.000000
 Symmetry turned off by external request.
 This structure is nearly, but not quite of a higher symmetry.
 Consider Symm=Loose if the higher symmetry is desired.
 Framework group  C1[X(C2H8)]
 Deg. of freedom    24
 Rotational constants (GHZ):     76.6916056      4.2652426      4.2652426
   276 basis functions,   360 primitive gaussians,   310 cartesian basis functions
     5 alpha electrons        5 beta electrons
       nuclear repulsion energy        13.2261670100 Hartrees.
 IMHF & INEx in M05                  614413                  385587
 NAtoms=   10 NActive=   10 NUniq=   10 SFac= 1.00D+00 NAtFMM=   60 NAOKFM=F Big=F
 ExpMin= 2.53D-02 ExpMax= 8.24D+03 ExpMxC= 2.81D+02 IAcc=3 IRadAn=         5 AccDes= 0.00D+00
 Harris functional with IExCor= 1009 and IRadAn=       5 diagonalized for initial guess.
 HarFok:  IExCor= 1009 AccDes= 0.00D+00 IRadAn=         5 IDoV= 1 UseB2=F ITyADJ=14
 ICtDFT=  3500011 ScaDFX=  1.000000  1.000000  1.000000  1.000000
 FoFCou: FMM=F IPFlag=           0 FMFlag=      100000 FMFlg1=           0
         NFxFlg=           0 DoJE=T BraDBF=F KetDBF=T FulRan=T
         wScrn=  0.000000 ICntrl=     500 IOpCl=  0 I1Cent=   200000004 NGrid=           0
         NMat0=    1 NMatS0=      1 NMatT0=    0 NMatD0=    1 NMtDS0=    0 NMtDT0=    0
 Symmetry not used in FoFCou.
 SCF Done:  E(RM05) =  -45.8798359810     A.U. after   10 cycles
            NFock= 10  Conv=0.39D-08     -V/T= 2.0335

 **********************************************************************

            Population analysis using the SCF density.

 **********************************************************************

 Alpha  occ. eigenvalues --  -12.05207  -0.99433  -0.71144  -0.71143  -0.71141
 Alpha virt. eigenvalues --   -0.08963  -0.01740  -0.01736  -0.01733  -0.00544
 Alpha virt. eigenvalues --   -0.00281  -0.00256   0.03197   0.03942   0.04537
 Alpha virt. eigenvalues --    0.05432   0.05971   0.06305   0.07129   0.07709
 Alpha virt. eigenvalues --    0.08478   0.09666   0.10820   0.12331   0.12522
 Alpha virt. eigenvalues --    0.15213   0.18219   0.18919   0.19280   0.19805
 Alpha virt. eigenvalues --    0.20188   0.20453   0.21411   0.22172   0.23206
 Alpha virt. eigenvalues --    0.23757   0.24834   0.25367   0.25635   0.25732
 Alpha virt. eigenvalues --    0.27399   0.27649   0.29569   0.30226   0.30945
 Alpha virt. eigenvalues --    0.32404   0.32937   0.33787   0.35086   0.35687
 Alpha virt. eigenvalues --    0.37542   0.37864   0.38123   0.39918   0.40317
 Alpha virt. eigenvalues --    0.42142   0.42953   0.45221   0.47267   0.48621
 Alpha virt. eigenvalues --    0.49261   0.50026   0.52900   0.53249   0.54521
 Alpha virt. eigenvalues --    0.56233   0.56709   0.57953   0.58335   0.59680
 Alpha virt. eigenvalues --    0.61530   0.63037   0.64038   0.65454   0.66183
 Alpha virt. eigenvalues --    0.67036   0.69735   0.70793   0.71513   0.72123
 Alpha virt. eigenvalues --    0.72917   0.74579   0.75326   0.77735   0.79568
 Alpha virt. eigenvalues --    0.79709   0.80728   0.83203   0.85702   0.86717
 Alpha virt. eigenvalues --    0.87900   0.91551   0.92464   0.93349   0.93464
 Alpha virt. eigenvalues --    0.94242   0.94888   0.97072   0.98077   0.98825
 Alpha virt. eigenvalues --    1.01348   1.02702   1.03471   1.04090   1.05300
 Alpha virt. eigenvalues --    1.06091   1.07123   1.07913   1.08802   1.09755
 Alpha virt. eigenvalues --    1.10677   1.15241   1.15621   1.19025   1.19510
 Alpha virt. eigenvalues --    1.22659   1.23286   1.24015   1.24961   1.26170
 Alpha virt. eigenvalues --    1.26652   1.28367   1.29825   1.30994   1.32171
 Alpha virt. eigenvalues --    1.33080   1.33950   1.36898   1.37838   1.39269
 Alpha virt. eigenvalues --    1.40109   1.42004   1.43306   1.44459   1.47181
 Alpha virt. eigenvalues --    1.48635   1.49813   1.50974   1.53957   1.58002
 Alpha virt. eigenvalues --    1.59746   1.61413   1.66657   1.71217   1.72461
 Alpha virt. eigenvalues --    1.74927   1.75552   1.79709   1.82546   1.83756
 Alpha virt. eigenvalues --    1.86300   1.87745   1.92233   1.94284   1.95244
 Alpha virt. eigenvalues --    2.00536   2.00846   2.04926   2.05728   2.08194
 Alpha virt. eigenvalues --    2.10844   2.14375   2.27558   2.28292   2.29462
 Alpha virt. eigenvalues --    2.41347   2.45465   2.46843   2.50679   2.50983
 Alpha virt. eigenvalues --    2.55297   2.68380   2.68908   2.71522   2.83179
 Alpha virt. eigenvalues --    2.99098   2.99197   3.01384   3.03468   3.05061
 Alpha virt. eigenvalues --    3.06154   3.10132   3.10448   3.22451   3.22912
 Alpha virt. eigenvalues --    3.24735   3.44581   3.45552   3.47318   3.49082
 Alpha virt. eigenvalues --    3.49760   3.49843   3.54829   3.57495   3.58115
 Alpha virt. eigenvalues --    3.72940   3.91006   3.91339   3.93198   3.98579
 Alpha virt. eigenvalues --    3.99921   4.01846   4.01985   4.03355   4.04225
 Alpha virt. eigenvalues --    4.04449   4.05206   4.06104   4.07074   4.10599
 Alpha virt. eigenvalues --    4.17008   4.17988   4.19278   4.23030   4.23946
 Alpha virt. eigenvalues --    4.32101   4.36059   4.39278   4.39859   4.46262
 Alpha virt. eigenvalues --    4.46751   4.47351   4.47734   4.48996   4.51025
 Alpha virt. eigenvalues --    4.53473   4.56279   4.59432   4.61781   4.65615
 Alpha virt. eigenvalues --    4.76889   4.82551   4.89085   4.89703   4.90164
 Alpha virt. eigenvalues --    4.91997   4.92910   4.95535   5.02179   5.02922
 Alpha virt. eigenvalues --    5.13477   5.14792   5.16075   5.17223   5.17745
 Alpha virt. eigenvalues --    5.19230   5.29005   5.29438   5.32180   5.40778
 Alpha virt. eigenvalues --    5.41908   5.47475   5.47632   5.49352   5.55630
 Alpha virt. eigenvalues --    5.62725   5.63263   5.67005   6.13857   6.14711
 Alpha virt. eigenvalues --    6.14904   6.23540   6.23567   6.81537   6.81954
 Alpha virt. eigenvalues --    6.82195   6.97452   7.64909   7.65800   7.68979
 Alpha virt. eigenvalues --    8.06296   8.06910   8.10610  10.30805  15.03052
 Alpha virt. eigenvalues --   52.47805
          Condensed to atoms (all electrons):
 Mulliken charges:
               1
     1  C   -0.014726
     2  H    0.008391
     3  H    0.003757
     4  H    0.001505
     5  H   -0.002072
     6  C    0.307667
     7  H   -0.046738
     8  H    0.063107
     9  H   -0.353124
    10  H    0.032232
 Sum of Mulliken charges =  -0.00000
 Mulliken charges with hydrogens summed into heavy atoms:
               1
     1  C   -0.003145
     6  C    0.003145
 Electronic spatial extent (au):  <R**2>=            534.1125
 Charge=             -0.0000 electrons
 Dipole moment (field-independent basis, Debye):
    X=             -0.0001    Y=             -0.0003    Z=             -0.0006  Tot=              0.0007

 Test job not archived.
 1\1\GINC-CHIMERA-NODE14\SP\RM05\Gen\C2H8\CONNORNM\08-Dec-2018\0\\#T M0
 5/Gen test Massage SCF=(tight,maxcyc=40)\\M05 opt\\0,1\C,0,0.,0.,0.\H,
 0,0.95739189,0.,0.55622543\H,0,-0.70871265,0.69881334,0.48515178\H,0,0
 .17967881,0.32220997,-1.04397424\H,0,-0.42835804,-1.02102331,0.0025970
 3\C,0,0.,0.,3.73630032\H,0,-0.51768245,-0.97852596,3.75815841\H,0,-0.6
 1678074,0.73148675,3.17907989\H,0,0.15326846,0.35968462,4.7722162\H,0,
 0.98119474,-0.11264541,3.23574678\\Version=AS64L-G09RevD.01\HF=-45.879
 836\RMSD=3.918e-09\Dipole=-0.0000365,-0.0001001,-0.0002381\Quadrupole=
 0.0005981,0.00053,-0.0011281,-0.0001511,0.0000053,0.0000674\PG=C01 [X(
 C2H8)]\\@


 WERE I TO AWAIT PERFECTION, MY BOOK WOULD NEVER BE FINISHED.
                                    -- HISTORY OF CHINESE WRITING

                                       TAI T'UNG, 13TH CENTURY
 Job cpu time:       0 days  0 hours 16 minutes 29.1 seconds.
 File lengths (MBytes):  RWF=     41 Int=      0 D2E=      0 Chk=      4 Scr=      1
 Normal termination of Gaussian 09 at Sat Dec  8 13:27:57 2018.
