 Entering Gaussian System, Link 0=/data/szalewicgrp/connornm/opt/Gaussian/g09-M05-par/g09/g09
 AtFile(1): aug-cc-pVTZ.gbs
 Initial command:
 /data/szalewicgrp/connornm/opt/Gaussian/g09-M05-par/g09/l1.exe "/scratch/local/Gau-30446.inp" -scrdir="/scratch/local/"
 Entering Link 1 = /data/szalewicgrp/connornm/opt/Gaussian/g09-M05-par/g09/l1.exe PID=     30447.
  
 Copyright (c) 1988,1990,1992,1993,1995,1998,2003,2009,2013,
            Gaussian, Inc.  All Rights Reserved.
  
 This is part of the Gaussian(R) 09 program.  It is based on
 the Gaussian(R) 03 system (copyright 2003, Gaussian, Inc.),
 the Gaussian(R) 98 system (copyright 1998, Gaussian, Inc.),
 the Gaussian(R) 94 system (copyright 1995, Gaussian, Inc.),
 the Gaussian 92(TM) system (copyright 1992, Gaussian, Inc.),
 the Gaussian 90(TM) system (copyright 1990, Gaussian, Inc.),
 the Gaussian 88(TM) system (copyright 1988, Gaussian, Inc.),
 the Gaussian 86(TM) system (copyright 1986, Carnegie Mellon
 University), and the Gaussian 82(TM) system (copyright 1983,
 Carnegie Mellon University). Gaussian is a federally registered
 trademark of Gaussian, Inc.
  
 This software contains proprietary and confidential information,
 including trade secrets, belonging to Gaussian, Inc.
  
 This software is provided under written license and may be
 used, copied, transmitted, or stored only in accord with that
 written license.
  
 The following legend is applicable only to US Government
 contracts under FAR:
  
                    RESTRICTED RIGHTS LEGEND
  
 Use, reproduction and disclosure by the US Government is
 subject to restrictions as set forth in subparagraphs (a)
 and (c) of the Commercial Computer Software - Restricted
 Rights clause in FAR 52.227-19.
  
 Gaussian, Inc.
 340 Quinnipiac St., Bldg. 40, Wallingford CT 06492
  
  
 ---------------------------------------------------------------
 Warning -- This program may not be used in any manner that
 competes with the business of Gaussian, Inc. or will provide
 assistance to any competitor of Gaussian, Inc.  The licensee
 of this program is prohibited from giving any competitor of
 Gaussian, Inc. access to this program.  By using this program,
 the user acknowledges that Gaussian, Inc. is engaged in the
 business of creating and licensing software in the field of
 computational chemistry and represents and warrants to the
 licensee that it is not a competitor of Gaussian, Inc. and that
 it will not use this program in any manner prohibited above.
 ---------------------------------------------------------------
  

 Cite this work as:
 Gaussian 09, Revision D.01,
 M. J. Frisch, G. W. Trucks, H. B. Schlegel, G. E. Scuseria, 
 M. A. Robb, J. R. Cheeseman, G. Scalmani, V. Barone, B. Mennucci, 
 G. A. Petersson, H. Nakatsuji, M. Caricato, X. Li, H. P. Hratchian, 
 A. F. Izmaylov, J. Bloino, G. Zheng, J. L. Sonnenberg, M. Hada, 
 M. Ehara, K. Toyota, R. Fukuda, J. Hasegawa, M. Ishida, T. Nakajima, 
 Y. Honda, O. Kitao, H. Nakai, T. Vreven, J. A. Montgomery, Jr., 
 J. E. Peralta, F. Ogliaro, M. Bearpark, J. J. Heyd, E. Brothers, 
 K. N. Kudin, V. N. Staroverov, T. Keith, R. Kobayashi, J. Normand, 
 K. Raghavachari, A. Rendell, J. C. Burant, S. S. Iyengar, J. Tomasi, 
 M. Cossi, N. Rega, J. M. Millam, M. Klene, J. E. Knox, J. B. Cross, 
 V. Bakken, C. Adamo, J. Jaramillo, R. Gomperts, R. E. Stratmann, 
 O. Yazyev, A. J. Austin, R. Cammi, C. Pomelli, J. W. Ochterski, 
 R. L. Martin, K. Morokuma, V. G. Zakrzewski, G. A. Voth, 
 P. Salvador, J. J. Dannenberg, S. Dapprich, A. D. Daniels, 
 O. Farkas, J. B. Foresman, J. V. Ortiz, J. Cioslowski, 
 and D. J. Fox, Gaussian, Inc., Wallingford CT, 2013.
 
 ******************************************
 Gaussian 09:  AS64L-G09RevD.01 24-Apr-2013
                 8-Dec-2018 
 ******************************************
 %Chk=CH400193
 %Mem=2GB
 %NProcShared=16
 Will use up to   16 processors via shared memory.
 ---------------------------------------------
 #T M05/Gen test Massage SCF=(tight,maxcyc=40)
 ---------------------------------------------
 -------
 M05 opt
 -------
 Symbolic Z-matrix:
 Charge =  0 Multiplicity = 1
 6-Bq                  0.        0.        0. 
 1-Bq                  1.10575   0.       -0.05739 
 1-Bq                 -0.37583   1.03452  -0.12042 
 1-Bq                 -0.4114   -0.63828  -0.80582 
 1-Bq                 -0.31853  -0.39625   0.98362 
 6                     0.        0.        4.47644 
 1                     0.3765    0.68167   5.26356 
 1                     0.45379   0.27275   3.50399 
 1                     0.27125  -1.04295   4.73073 
 1                    -1.10154   0.08853   4.40748 
 
                    Distance matrix (angstroms):
                    1          2          3          4          5
     1  C    0.000000
     2  H    1.107243   0.000000
     3  H    1.107243   1.808119   0.000000
     4  H    1.107242   1.808119   1.808119   0.000000
     5  H    1.107243   1.808119   1.808119   1.808119   0.000000
     6  C    4.476440   4.666722   4.726794   5.336561   3.529624
     7  H    5.320857   5.413779   5.447728   6.261023   4.467981
     8  H    3.543759   3.630818   3.795371   4.489200   2.719607
     9  H    4.851919   4.970936   5.316787   5.593131   3.847970
    10  H    4.543914   4.981474   4.682250   5.308771   3.545554
                    6          7          8          9         10
     6  C    0.000000
     7  H    1.107242   0.000000
     8  H    1.107243   1.808119   0.000000
     9  H    1.107243   1.808119   1.808119   0.000000
    10  H    1.107242   1.808119   1.808119   1.808119   0.000000
 Symmetry turned off by external request.
 This structure is nearly, but not quite of a higher symmetry.
 Consider Symm=Loose if the higher symmetry is desired.
 Framework group  C1[X(C2H8)]
 Deg. of freedom    24
 Rotational constants (GHZ):     76.6916052      3.0223939      3.0223939
   276 basis functions,   360 primitive gaussians,   310 cartesian basis functions
     5 alpha electrons        5 beta electrons
       nuclear repulsion energy        13.2261669911 Hartrees.
 IMHF & INEx in M05                  614413                  385587
 NAtoms=   10 NActive=   10 NUniq=   10 SFac= 1.00D+00 NAtFMM=   60 NAOKFM=F Big=F
 ExpMin= 2.53D-02 ExpMax= 8.24D+03 ExpMxC= 2.81D+02 IAcc=3 IRadAn=         5 AccDes= 0.00D+00
 Harris functional with IExCor= 1009 and IRadAn=       5 diagonalized for initial guess.
 HarFok:  IExCor= 1009 AccDes= 0.00D+00 IRadAn=         5 IDoV= 1 UseB2=F ITyADJ=14
 ICtDFT=  3500011 ScaDFX=  1.000000  1.000000  1.000000  1.000000
 FoFCou: FMM=F IPFlag=           0 FMFlag=      100000 FMFlg1=           0
         NFxFlg=           0 DoJE=T BraDBF=F KetDBF=T FulRan=T
         wScrn=  0.000000 ICntrl=     500 IOpCl=  0 I1Cent=   200000004 NGrid=           0
         NMat0=    1 NMatS0=      1 NMatT0=    0 NMatD0=    1 NMtDS0=    0 NMtDT0=    0
 Symmetry not used in FoFCou.
 SCF Done:  E(RM05) =  -45.9508173524     A.U. after   10 cycles
            NFock= 10  Conv=0.39D-08     -V/T= 2.0338

 **********************************************************************

            Population analysis using the SCF density.

 **********************************************************************

 Alpha  occ. eigenvalues --  -12.07069  -0.99693  -0.71482  -0.71480  -0.71479
 Alpha virt. eigenvalues --   -0.09145  -0.01921  -0.01910  -0.01901  -0.00623
 Alpha virt. eigenvalues --   -0.00495  -0.00461   0.02845   0.04047   0.04712
 Alpha virt. eigenvalues --    0.05103   0.05704   0.06018   0.07029   0.07396
 Alpha virt. eigenvalues --    0.08126   0.09873   0.10590   0.11699   0.12292
 Alpha virt. eigenvalues --    0.13738   0.16642   0.18977   0.19871   0.20032
 Alpha virt. eigenvalues --    0.20344   0.21048   0.21918   0.22845   0.23061
 Alpha virt. eigenvalues --    0.23952   0.24230   0.24739   0.24967   0.25369
 Alpha virt. eigenvalues --    0.26356   0.27303   0.28096   0.28304   0.30107
 Alpha virt. eigenvalues --    0.30662   0.31050   0.33452   0.34818   0.35099
 Alpha virt. eigenvalues --    0.35853   0.36718   0.37524   0.38677   0.40368
 Alpha virt. eigenvalues --    0.41269   0.42511   0.43952   0.44729   0.46673
 Alpha virt. eigenvalues --    0.48005   0.48338   0.50261   0.53657   0.54869
 Alpha virt. eigenvalues --    0.55423   0.56532   0.57514   0.58346   0.59202
 Alpha virt. eigenvalues --    0.61802   0.63497   0.63927   0.65358   0.65777
 Alpha virt. eigenvalues --    0.66360   0.69000   0.70542   0.70888   0.71483
 Alpha virt. eigenvalues --    0.73727   0.74243   0.75556   0.76548   0.77010
 Alpha virt. eigenvalues --    0.78469   0.81229   0.84090   0.84778   0.86825
 Alpha virt. eigenvalues --    0.88651   0.89728   0.90735   0.91428   0.93442
 Alpha virt. eigenvalues --    0.94133   0.94309   0.95266   0.96847   0.98480
 Alpha virt. eigenvalues --    0.99576   1.00076   1.02208   1.03305   1.04828
 Alpha virt. eigenvalues --    1.06639   1.07041   1.07352   1.08370   1.09132
 Alpha virt. eigenvalues --    1.10449   1.13679   1.15000   1.16539   1.18038
 Alpha virt. eigenvalues --    1.18367   1.21671   1.22776   1.23391   1.24651
 Alpha virt. eigenvalues --    1.25062   1.26031   1.26584   1.27812   1.28008
 Alpha virt. eigenvalues --    1.29243   1.30915   1.34182   1.34980   1.37321
 Alpha virt. eigenvalues --    1.38287   1.38378   1.40039   1.41132   1.44590
 Alpha virt. eigenvalues --    1.45540   1.47818   1.48245   1.49036   1.54728
 Alpha virt. eigenvalues --    1.57020   1.59218   1.61490   1.69029   1.70601
 Alpha virt. eigenvalues --    1.73366   1.75400   1.78541   1.80846   1.83487
 Alpha virt. eigenvalues --    1.84807   1.87062   1.89430   1.92955   1.97440
 Alpha virt. eigenvalues --    2.01624   2.02515   2.04035   2.04081   2.06500
 Alpha virt. eigenvalues --    2.09094   2.11337   2.25126   2.27007   2.29449
 Alpha virt. eigenvalues --    2.37097   2.44583   2.47256   2.47782   2.49730
 Alpha virt. eigenvalues --    2.53140   2.67784   2.69625   2.71779   2.80766
 Alpha virt. eigenvalues --    2.97155   2.98210   2.99646   3.00200   3.01555
 Alpha virt. eigenvalues --    3.04116   3.07734   3.10318   3.21567   3.22688
 Alpha virt. eigenvalues --    3.24679   3.43569   3.45035   3.45983   3.46597
 Alpha virt. eigenvalues --    3.47721   3.48760   3.51226   3.55132   3.58777
 Alpha virt. eigenvalues --    3.68324   3.89097   3.90181   3.91471   3.99357
 Alpha virt. eigenvalues --    3.99906   4.00365   4.02055   4.02666   4.02876
 Alpha virt. eigenvalues --    4.03863   4.04652   4.05639   4.08241   4.09228
 Alpha virt. eigenvalues --    4.16790   4.17533   4.18273   4.19062   4.21407
 Alpha virt. eigenvalues --    4.27140   4.36159   4.37018   4.40308   4.42256
 Alpha virt. eigenvalues --    4.43486   4.46159   4.46874   4.48285   4.51812
 Alpha virt. eigenvalues --    4.53337   4.55198   4.60131   4.61156   4.63100
 Alpha virt. eigenvalues --    4.76784   4.81120   4.88414   4.89098   4.89634
 Alpha virt. eigenvalues --    4.92287   4.92578   4.93679   5.01977   5.02248
 Alpha virt. eigenvalues --    5.14217   5.14651   5.15204   5.16085   5.16473
 Alpha virt. eigenvalues --    5.18529   5.29690   5.30894   5.31609   5.41497
 Alpha virt. eigenvalues --    5.43831   5.47396   5.48364   5.51369   5.53491
 Alpha virt. eigenvalues --    5.60798   5.62596   5.64189   6.14057   6.14580
 Alpha virt. eigenvalues --    6.14928   6.24454   6.24585   6.80296   6.81219
 Alpha virt. eigenvalues --    6.85640   6.97607   7.65605   7.66438   7.68183
 Alpha virt. eigenvalues --    8.02916   8.04647   8.10203  10.30280  14.93359
 Alpha virt. eigenvalues --   52.31609
          Condensed to atoms (all electrons):
 Mulliken charges:
               1
     1  C    0.003808
     2  H   -0.001228
     3  H   -0.001141
     4  H    0.000834
     5  H   -0.000521
     6  C    0.314889
     7  H   -0.351531
     8  H    0.331579
     9  H   -0.156311
    10  H   -0.140378
 Sum of Mulliken charges =  -0.00000
 Mulliken charges with hydrogens summed into heavy atoms:
               1
     1  C    0.001751
     6  C   -0.001751
 Electronic spatial extent (au):  <R**2>=            751.1654
 Charge=             -0.0000 electrons
 Dipole moment (field-independent basis, Debye):
    X=              0.0001    Y=             -0.0001    Z=              0.0004  Tot=              0.0004

 Test job not archived.
 1\1\GINC-CHIMERA-NODE14\SP\RM05\Gen\C2H8\CONNORNM\08-Dec-2018\0\\#T M0
 5/Gen test Massage SCF=(tight,maxcyc=40)\\M05 opt\\0,1\C,0,0.,0.,0.\H,
 0,1.10575427,0.,-0.05738864\H,0,-0.3758272,1.03452391,-0.12041661\H,0,
 -0.41139949,-0.63827512,-0.80581715\H,0,-0.31852758,-0.39624879,0.9836
 2241\C,0,0.,0.,4.47644019\H,0,0.37650129,0.681668,5.26356246\H,0,0.453
 78614,0.27275457,3.50398503\H,0,0.27125423,-1.04294992,4.73072856\H,0,
 -1.10154165,0.08852734,4.40748472\\Version=AS64L-G09RevD.01\HF=-45.950
 8174\RMSD=3.919e-09\Dipole=0.0000285,-0.0000468,0.000159\Quadrupole=-0
 .0011508,-0.0007216,0.0018724,0.0007306,0.0005724,0.00024\PG=C01 [X(C2
 H8)]\\@


    THE DOUGHNUT CREED
 AS YOU RAMBLE ON THROUGH LIFE, BROTHER
 WHATEVER BE YOUR GOAL
 KEEP YOUR EYE UPON THE DOUGHNUT
 AND NOT UPON THE HOLE.
 Job cpu time:       0 days  0 hours 14 minutes 38.2 seconds.
 File lengths (MBytes):  RWF=     41 Int=      0 D2E=      0 Chk=      4 Scr=      1
 Normal termination of Gaussian 09 at Sat Dec  8 15:20:39 2018.
