 Entering Gaussian System, Link 0=/data/szalewicgrp/connornm/opt/Gaussian/g09-M05-par/g09/g09
 AtFile(1): aug-cc-pVTZ.gbs
 Initial command:
 /data/szalewicgrp/connornm/opt/Gaussian/g09-M05-par/g09/l1.exe "/scratch/local/Gau-8025.inp" -scrdir="/scratch/local/"
 Entering Link 1 = /data/szalewicgrp/connornm/opt/Gaussian/g09-M05-par/g09/l1.exe PID=      8026.
  
 Copyright (c) 1988,1990,1992,1993,1995,1998,2003,2009,2013,
            Gaussian, Inc.  All Rights Reserved.
  
 This is part of the Gaussian(R) 09 program.  It is based on
 the Gaussian(R) 03 system (copyright 2003, Gaussian, Inc.),
 the Gaussian(R) 98 system (copyright 1998, Gaussian, Inc.),
 the Gaussian(R) 94 system (copyright 1995, Gaussian, Inc.),
 the Gaussian 92(TM) system (copyright 1992, Gaussian, Inc.),
 the Gaussian 90(TM) system (copyright 1990, Gaussian, Inc.),
 the Gaussian 88(TM) system (copyright 1988, Gaussian, Inc.),
 the Gaussian 86(TM) system (copyright 1986, Carnegie Mellon
 University), and the Gaussian 82(TM) system (copyright 1983,
 Carnegie Mellon University). Gaussian is a federally registered
 trademark of Gaussian, Inc.
  
 This software contains proprietary and confidential information,
 including trade secrets, belonging to Gaussian, Inc.
  
 This software is provided under written license and may be
 used, copied, transmitted, or stored only in accord with that
 written license.
  
 The following legend is applicable only to US Government
 contracts under FAR:
  
                    RESTRICTED RIGHTS LEGEND
  
 Use, reproduction and disclosure by the US Government is
 subject to restrictions as set forth in subparagraphs (a)
 and (c) of the Commercial Computer Software - Restricted
 Rights clause in FAR 52.227-19.
  
 Gaussian, Inc.
 340 Quinnipiac St., Bldg. 40, Wallingford CT 06492
  
  
 ---------------------------------------------------------------
 Warning -- This program may not be used in any manner that
 competes with the business of Gaussian, Inc. or will provide
 assistance to any competitor of Gaussian, Inc.  The licensee
 of this program is prohibited from giving any competitor of
 Gaussian, Inc. access to this program.  By using this program,
 the user acknowledges that Gaussian, Inc. is engaged in the
 business of creating and licensing software in the field of
 computational chemistry and represents and warrants to the
 licensee that it is not a competitor of Gaussian, Inc. and that
 it will not use this program in any manner prohibited above.
 ---------------------------------------------------------------
  

 Cite this work as:
 Gaussian 09, Revision D.01,
 M. J. Frisch, G. W. Trucks, H. B. Schlegel, G. E. Scuseria, 
 M. A. Robb, J. R. Cheeseman, G. Scalmani, V. Barone, B. Mennucci, 
 G. A. Petersson, H. Nakatsuji, M. Caricato, X. Li, H. P. Hratchian, 
 A. F. Izmaylov, J. Bloino, G. Zheng, J. L. Sonnenberg, M. Hada, 
 M. Ehara, K. Toyota, R. Fukuda, J. Hasegawa, M. Ishida, T. Nakajima, 
 Y. Honda, O. Kitao, H. Nakai, T. Vreven, J. A. Montgomery, Jr., 
 J. E. Peralta, F. Ogliaro, M. Bearpark, J. J. Heyd, E. Brothers, 
 K. N. Kudin, V. N. Staroverov, T. Keith, R. Kobayashi, J. Normand, 
 K. Raghavachari, A. Rendell, J. C. Burant, S. S. Iyengar, J. Tomasi, 
 M. Cossi, N. Rega, J. M. Millam, M. Klene, J. E. Knox, J. B. Cross, 
 V. Bakken, C. Adamo, J. Jaramillo, R. Gomperts, R. E. Stratmann, 
 O. Yazyev, A. J. Austin, R. Cammi, C. Pomelli, J. W. Ochterski, 
 R. L. Martin, K. Morokuma, V. G. Zakrzewski, G. A. Voth, 
 P. Salvador, J. J. Dannenberg, S. Dapprich, A. D. Daniels, 
 O. Farkas, J. B. Foresman, J. V. Ortiz, J. Cioslowski, 
 and D. J. Fox, Gaussian, Inc., Wallingford CT, 2013.
 
 ******************************************
 Gaussian 09:  AS64L-G09RevD.01 24-Apr-2013
                 7-Dec-2018 
 ******************************************
 %Chk=CH400078
 %Mem=2GB
 %NProcShared=16
 Will use up to   16 processors via shared memory.
 ---------------------------------------------
 #T M05/Gen test Massage SCF=(tight,maxcyc=40)
 ---------------------------------------------
 -------
 M05 opt
 -------
 Symbolic Z-matrix:
 Charge =  0 Multiplicity = 1
 6-Bq                  0.        0.        0. 
 1-Bq                  1.10221   0.        0.10544 
 1-Bq                 -0.28061  -0.50894  -0.94246 
 1-Bq                 -0.45278  -0.53487   0.85726 
 1-Bq                 -0.36883   1.04381  -0.02024 
 6                     0.        0.        3.11733 
 1                    -0.90648  -0.28471   3.68586 
 1                    -0.29609   0.53646   2.19509 
 1                     0.63446   0.65965   3.74047 
 1                     0.5681   -0.9114    2.8479 
 
                    Distance matrix (angstroms):
                    1          2          3          4          5
     1  C    0.000000
     2  H    1.107243   0.000000
     3  H    1.107243   1.808119   0.000000
     4  H    1.107243   1.808119   1.808119   0.000000
     5  H    1.107243   1.808119   1.808119   1.808119   0.000000
     6  C    3.117327   3.207228   4.101172   2.366221   3.327151
     7  H    3.806350   4.115245   4.675819   2.875654   3.973566
     8  H    2.279007   2.570924   3.307159   1.721074   2.273849
     9  H    3.850816   3.723887   4.912509   3.304824   3.911154
    10  H    3.043667   2.938873   3.905006   2.268613   3.595404
                    6          7          8          9         10
     6  C    0.000000
     7  H    1.107242   0.000000
     8  H    1.107242   1.808119   0.000000
     9  H    1.107243   1.808119   1.808119   0.000000
    10  H    1.107243   1.808119   1.808119   1.808119   0.000000
 Symmetry turned off by external request.
 This structure is nearly, but not quite of a higher symmetry.
 Consider Symm=Loose if the higher symmetry is desired.
 Framework group  C1[X(C2H8)]
 Deg. of freedom    24
 Rotational constants (GHZ):     76.6916053      5.9819721      5.9819721
   276 basis functions,   360 primitive gaussians,   310 cartesian basis functions
     5 alpha electrons        5 beta electrons
       nuclear repulsion energy        13.2261669918 Hartrees.
 IMHF & INEx in M05                  614413                  385587
 NAtoms=   10 NActive=   10 NUniq=   10 SFac= 1.00D+00 NAtFMM=   60 NAOKFM=F Big=F
 ExpMin= 2.53D-02 ExpMax= 8.24D+03 ExpMxC= 2.81D+02 IAcc=3 IRadAn=         5 AccDes= 0.00D+00
 Harris functional with IExCor= 1009 and IRadAn=       5 diagonalized for initial guess.
 HarFok:  IExCor= 1009 AccDes= 0.00D+00 IRadAn=         5 IDoV= 1 UseB2=F ITyADJ=14
 ICtDFT=  3500011 ScaDFX=  1.000000  1.000000  1.000000  1.000000
 FoFCou: FMM=F IPFlag=           0 FMFlag=      100000 FMFlg1=           0
         NFxFlg=           0 DoJE=T BraDBF=F KetDBF=T FulRan=T
         wScrn=  0.000000 ICntrl=     500 IOpCl=  0 I1Cent=   200000004 NGrid=           0
         NMat0=    1 NMatS0=      1 NMatT0=    0 NMatD0=    1 NMtDS0=    0 NMtDT0=    0
 Symmetry not used in FoFCou.
 SCF Done:  E(RM05) =  -40.9122837885     A.U. after    7 cycles
            NFock=  7  Conv=0.62D-08     -V/T= 2.0127

 **********************************************************************

            Population analysis using the SCF density.

 **********************************************************************

 Alpha  occ. eigenvalues --  -10.74529  -0.82769  -0.48754  -0.48752  -0.48751
 Alpha virt. eigenvalues --   -0.00125   0.02445   0.02672   0.02812   0.04758
 Alpha virt. eigenvalues --    0.05078   0.05530   0.07171   0.08012   0.09326
 Alpha virt. eigenvalues --    0.09891   0.10752   0.10964   0.11319   0.11794
 Alpha virt. eigenvalues --    0.13129   0.15400   0.15777   0.17598   0.18557
 Alpha virt. eigenvalues --    0.21276   0.21486   0.22441   0.25952   0.26788
 Alpha virt. eigenvalues --    0.27056   0.27371   0.27697   0.28635   0.29096
 Alpha virt. eigenvalues --    0.29712   0.30360   0.30972   0.31251   0.32412
 Alpha virt. eigenvalues --    0.33197   0.33971   0.35265   0.35857   0.36331
 Alpha virt. eigenvalues --    0.36702   0.39295   0.40067   0.41563   0.42231
 Alpha virt. eigenvalues --    0.43331   0.44029   0.44181   0.47209   0.47559
 Alpha virt. eigenvalues --    0.48025   0.48801   0.49846   0.51437   0.53419
 Alpha virt. eigenvalues --    0.54912   0.56422   0.58216   0.60672   0.62924
 Alpha virt. eigenvalues --    0.63724   0.65402   0.66988   0.68747   0.69681
 Alpha virt. eigenvalues --    0.71565   0.72773   0.74563   0.76371   0.77700
 Alpha virt. eigenvalues --    0.79958   0.80633   0.84494   0.85334   0.86532
 Alpha virt. eigenvalues --    0.89565   0.90149   0.90778   0.91848   0.92996
 Alpha virt. eigenvalues --    0.93449   0.96035   0.96639   0.97586   0.97886
 Alpha virt. eigenvalues --    0.99001   1.00404   1.00923   1.02106   1.02705
 Alpha virt. eigenvalues --    1.04728   1.06149   1.06378   1.07961   1.08341
 Alpha virt. eigenvalues --    1.09724   1.10262   1.11780   1.12727   1.13893
 Alpha virt. eigenvalues --    1.15073   1.15575   1.19369   1.20470   1.21378
 Alpha virt. eigenvalues --    1.22355   1.23287   1.25359   1.28620   1.29265
 Alpha virt. eigenvalues --    1.30605   1.32073   1.35109   1.35554   1.36986
 Alpha virt. eigenvalues --    1.38754   1.40580   1.42206   1.45254   1.46833
 Alpha virt. eigenvalues --    1.47787   1.48431   1.50716   1.51930   1.55516
 Alpha virt. eigenvalues --    1.58293   1.60881   1.61354   1.64108   1.65635
 Alpha virt. eigenvalues --    1.69065   1.69838   1.72028   1.75463   1.76796
 Alpha virt. eigenvalues --    1.77999   1.79041   1.82373   1.84969   1.86028
 Alpha virt. eigenvalues --    1.87344   1.90750   1.95094   1.96365   1.98278
 Alpha virt. eigenvalues --    1.98961   2.00032   2.00756   2.02311   2.03644
 Alpha virt. eigenvalues --    2.08063   2.11029   2.11477   2.14275   2.18237
 Alpha virt. eigenvalues --    2.20506   2.28988   2.31306   2.37155   2.43414
 Alpha virt. eigenvalues --    2.50330   2.59032   2.64178   2.67032   2.70765
 Alpha virt. eigenvalues --    2.78415   2.88942   2.94237   2.98894   3.04253
 Alpha virt. eigenvalues --    3.24357   3.26944   3.27516   3.30523   3.31043
 Alpha virt. eigenvalues --    3.33283   3.34905   3.50190   3.59116   3.60008
 Alpha virt. eigenvalues --    3.67128   3.71791   3.72710   3.73392   3.76563
 Alpha virt. eigenvalues --    3.78045   3.79742   3.81449   3.84022   3.87920
 Alpha virt. eigenvalues --    3.91743   3.97190   4.02190   4.05375   4.07078
 Alpha virt. eigenvalues --    4.10811   4.14211   4.16189   4.20532   4.21062
 Alpha virt. eigenvalues --    4.21531   4.26013   4.32049   4.33163   4.34603
 Alpha virt. eigenvalues --    4.36795   4.40170   4.41741   4.43807   4.44952
 Alpha virt. eigenvalues --    4.47715   4.48240   4.51296   4.52154   4.54417
 Alpha virt. eigenvalues --    4.55438   4.58670   4.61096   4.64352   4.73462
 Alpha virt. eigenvalues --    4.74860   4.77820   4.81022   4.81975   4.85255
 Alpha virt. eigenvalues --    4.89609   4.90466   4.95140   5.07251   5.08582
 Alpha virt. eigenvalues --    5.14291   5.16094   5.17513   5.22002   5.23885
 Alpha virt. eigenvalues --    5.25301   5.28812   5.29560   5.33899   5.34859
 Alpha virt. eigenvalues --    5.38518   5.40395   5.41897   5.47113   5.49398
 Alpha virt. eigenvalues --    5.54445   5.60546   5.62235   5.73450   5.81647
 Alpha virt. eigenvalues --    6.06469   6.07778   6.09841   6.11677   6.12797
 Alpha virt. eigenvalues --    6.16016   6.18619   6.21754   6.76379   6.78703
 Alpha virt. eigenvalues --    6.86692   6.93696   7.59125   7.60330   7.64237
 Alpha virt. eigenvalues --    7.99199   8.07671   8.09055  10.33156  17.09868
 Alpha virt. eigenvalues --   52.71130
          Condensed to atoms (all electrons):
 Mulliken charges:
               1
     1  C   -0.011799
     2  H    0.001039
     3  H   -0.008010
     4  H    0.046874
     5  H    0.005521
     6  C   -1.972852
     7  H    0.443399
     8  H    0.627599
     9  H    0.411654
    10  H    0.456576
 Sum of Mulliken charges =   0.00000
 Mulliken charges with hydrogens summed into heavy atoms:
               1
     1  C    0.033625
     6  C   -0.033625
 Electronic spatial extent (au):  <R**2>=            383.5689
 Charge=              0.0000 electrons
 Dipole moment (field-independent basis, Debye):
    X=             -0.0002    Y=              0.0001    Z=             -0.0002  Tot=              0.0003

 Test job not archived.
 1\1\GINC-CHIMERA-NODE21\SP\RM05\Gen\C2H8\CONNORNM\07-Dec-2018\0\\#T M0
 5/Gen test Massage SCF=(tight,maxcyc=40)\\M05 opt\\0,1\C,0,0.,0.,0.\H,
 0,1.10221037,0.,0.10544315\H,0,-0.28060547,-0.50893981,-0.94245785\H,0
 ,-0.45277571,-0.53487107,0.85725904\H,0,-0.36882919,1.04381088,-0.0202
 4434\C,0,0.,0.,3.11732734\H,0,-0.90647561,-0.28471471,3.68585654\H,0,-
 0.29608831,0.53646301,2.19508816\H,0,0.63446047,0.65965252,3.74046811\
 H,0,0.56810346,-0.91140083,2.84789654\\Version=AS64L-G09RevD.01\HF=-40
 .9122838\RMSD=6.237e-09\Dipole=-0.0000897,0.0000502,-0.0000814\Quadrup
 ole=0.0002195,0.0004437,-0.0006632,-0.0000328,-0.000556,0.0005642\PG=C
 01 [X(C2H8)]\\@


 THE DIFFERENCE BETWEEN A NOOSE AND A HALO IS ONLY 12 INCHES.
 Job cpu time:       0 days  0 hours 12 minutes 57.4 seconds.
 File lengths (MBytes):  RWF=     41 Int=      0 D2E=      0 Chk=      4 Scr=      1
 Normal termination of Gaussian 09 at Fri Dec  7 14:02:56 2018.
ec  7 14:02:44 2018.
