 Entering Gaussian System, Link 0=/data/szalewicgrp/connornm/opt/Gaussian/g09-M05-par/g09/g09
 AtFile(1): aug-cc-pVTZ.gbs
 Initial command:
 /data/szalewicgrp/connornm/opt/Gaussian/g09-M05-par/g09/l1.exe "/scratch/local/Gau-7850.inp" -scrdir="/scratch/local/"
 Entering Link 1 = /data/szalewicgrp/connornm/opt/Gaussian/g09-M05-par/g09/l1.exe PID=      7851.
  
 Copyright (c) 1988,1990,1992,1993,1995,1998,2003,2009,2013,
            Gaussian, Inc.  All Rights Reserved.
  
 This is part of the Gaussian(R) 09 program.  It is based on
 the Gaussian(R) 03 system (copyright 2003, Gaussian, Inc.),
 the Gaussian(R) 98 system (copyright 1998, Gaussian, Inc.),
 the Gaussian(R) 94 system (copyright 1995, Gaussian, Inc.),
 the Gaussian 92(TM) system (copyright 1992, Gaussian, Inc.),
 the Gaussian 90(TM) system (copyright 1990, Gaussian, Inc.),
 the Gaussian 88(TM) system (copyright 1988, Gaussian, Inc.),
 the Gaussian 86(TM) system (copyright 1986, Carnegie Mellon
 University), and the Gaussian 82(TM) system (copyright 1983,
 Carnegie Mellon University). Gaussian is a federally registered
 trademark of Gaussian, Inc.
  
 This software contains proprietary and confidential information,
 including trade secrets, belonging to Gaussian, Inc.
  
 This software is provided under written license and may be
 used, copied, transmitted, or stored only in accord with that
 written license.
  
 The following legend is applicable only to US Government
 contracts under FAR:
  
                    RESTRICTED RIGHTS LEGEND
  
 Use, reproduction and disclosure by the US Government is
 subject to restrictions as set forth in subparagraphs (a)
 and (c) of the Commercial Computer Software - Restricted
 Rights clause in FAR 52.227-19.
  
 Gaussian, Inc.
 340 Quinnipiac St., Bldg. 40, Wallingford CT 06492
  
  
 ---------------------------------------------------------------
 Warning -- This program may not be used in any manner that
 competes with the business of Gaussian, Inc. or will provide
 assistance to any competitor of Gaussian, Inc.  The licensee
 of this program is prohibited from giving any competitor of
 Gaussian, Inc. access to this program.  By using this program,
 the user acknowledges that Gaussian, Inc. is engaged in the
 business of creating and licensing software in the field of
 computational chemistry and represents and warrants to the
 licensee that it is not a competitor of Gaussian, Inc. and that
 it will not use this program in any manner prohibited above.
 ---------------------------------------------------------------
  

 Cite this work as:
 Gaussian 09, Revision D.01,
 M. J. Frisch, G. W. Trucks, H. B. Schlegel, G. E. Scuseria, 
 M. A. Robb, J. R. Cheeseman, G. Scalmani, V. Barone, B. Mennucci, 
 G. A. Petersson, H. Nakatsuji, M. Caricato, X. Li, H. P. Hratchian, 
 A. F. Izmaylov, J. Bloino, G. Zheng, J. L. Sonnenberg, M. Hada, 
 M. Ehara, K. Toyota, R. Fukuda, J. Hasegawa, M. Ishida, T. Nakajima, 
 Y. Honda, O. Kitao, H. Nakai, T. Vreven, J. A. Montgomery, Jr., 
 J. E. Peralta, F. Ogliaro, M. Bearpark, J. J. Heyd, E. Brothers, 
 K. N. Kudin, V. N. Staroverov, T. Keith, R. Kobayashi, J. Normand, 
 K. Raghavachari, A. Rendell, J. C. Burant, S. S. Iyengar, J. Tomasi, 
 M. Cossi, N. Rega, J. M. Millam, M. Klene, J. E. Knox, J. B. Cross, 
 V. Bakken, C. Adamo, J. Jaramillo, R. Gomperts, R. E. Stratmann, 
 O. Yazyev, A. J. Austin, R. Cammi, C. Pomelli, J. W. Ochterski, 
 R. L. Martin, K. Morokuma, V. G. Zakrzewski, G. A. Voth, 
 P. Salvador, J. J. Dannenberg, S. Dapprich, A. D. Daniels, 
 O. Farkas, J. B. Foresman, J. V. Ortiz, J. Cioslowski, 
 and D. J. Fox, Gaussian, Inc., Wallingford CT, 2013.
 
 ******************************************
 Gaussian 09:  AS64L-G09RevD.01 24-Apr-2013
                 8-Dec-2018 
 ******************************************
 %Chk=CH400033
 %Mem=2GB
 %NProcShared=16
 Will use up to   16 processors via shared memory.
 ---------------------------------------------
 #T M05/Gen test Massage SCF=(tight,maxcyc=40)
 ---------------------------------------------
 -------
 M05 opt
 -------
 Symbolic Z-matrix:
 Charge =  0 Multiplicity = 1
 6-Bq                  0.        0.        0. 
 1-Bq                  0.51766   0.       -0.97878 
 1-Bq                 -0.68337  -0.86939   0.0561 
 1-Bq                  0.74842  -0.06575   0.81335 
 1-Bq                 -0.58271   0.93514   0.10934 
 6                     0.        0.        4.01142 
 1                    -0.95537   0.55964   4.0186 
 1                     0.38398  -0.088     5.04621 
 1                    -0.16775  -1.01122   3.59274 
 1                     0.73914   0.53958   3.38811 
 
                    Distance matrix (angstroms):
                    1          2          3          4          5
     1  C    0.000000
     2  H    1.107243   0.000000
     3  H    1.107242   1.808119   0.000000
     4  H    1.107243   1.808119   1.808119   0.000000
     5  H    1.107242   1.808119   1.808119   1.808119   0.000000
     6  C    4.011417   5.016977   4.106993   3.285135   4.054658
     7  H    4.168345   5.239931   4.221085   3.683434   3.944899
     8  H    5.061565   6.027119   5.162465   4.248583   5.133617
     9  H    3.736108   4.731933   3.576849   3.075439   4.011808
    10  H    3.509527   4.405674   3.887295   2.644982   3.557259
                    6          7          8          9         10
     6  C    0.000000
     7  H    1.107243   0.000000
     8  H    1.107243   1.808119   0.000000
     9  H    1.107242   1.808119   1.808119   0.000000
    10  H    1.107242   1.808119   1.808119   1.808119   0.000000
 Symmetry turned off by external request.
 This structure is nearly, but not quite of a higher symmetry.
 Consider Symm=Loose if the higher symmetry is desired.
 Framework group  C1[X(C2H8)]
 Deg. of freedom    24
 Rotational constants (GHZ):     76.6916056      3.7277166      3.7277166
   276 basis functions,   360 primitive gaussians,   310 cartesian basis functions
     5 alpha electrons        5 beta electrons
       nuclear repulsion energy        13.2261670167 Hartrees.
 IMHF & INEx in M05                  614413                  385587
 NAtoms=   10 NActive=   10 NUniq=   10 SFac= 1.00D+00 NAtFMM=   60 NAOKFM=F Big=F
 ExpMin= 2.53D-02 ExpMax= 8.24D+03 ExpMxC= 2.81D+02 IAcc=3 IRadAn=         5 AccDes= 0.00D+00
 Harris functional with IExCor= 1009 and IRadAn=       5 diagonalized for initial guess.
 HarFok:  IExCor= 1009 AccDes= 0.00D+00 IRadAn=         5 IDoV= 1 UseB2=F ITyADJ=14
 ICtDFT=  3500011 ScaDFX=  1.000000  1.000000  1.000000  1.000000
 FoFCou: FMM=F IPFlag=           0 FMFlag=      100000 FMFlg1=           0
         NFxFlg=           0 DoJE=T BraDBF=F KetDBF=T FulRan=T
         wScrn=  0.000000 ICntrl=     500 IOpCl=  0 I1Cent=   200000004 NGrid=           0
         NMat0=    1 NMatS0=      1 NMatT0=    0 NMatD0=    1 NMtDS0=    0 NMtDT0=    0
 Symmetry not used in FoFCou.
 SCF Done:  E(RM05) =  -45.8797329974     A.U. after   10 cycles
            NFock= 10  Conv=0.30D-08     -V/T= 2.0335

 **********************************************************************

            Population analysis using the SCF density.

 **********************************************************************

 Alpha  occ. eigenvalues --  -12.05207  -0.99432  -0.71143  -0.71143  -0.71140
 Alpha virt. eigenvalues --   -0.08964  -0.01739  -0.01735  -0.01731  -0.00538
 Alpha virt. eigenvalues --   -0.00312  -0.00271   0.03162   0.03702   0.04342
 Alpha virt. eigenvalues --    0.05336   0.05986   0.06401   0.07230   0.07721
 Alpha virt. eigenvalues --    0.08454   0.09876   0.10755   0.11352   0.12002
 Alpha virt. eigenvalues --    0.14689   0.17618   0.18783   0.19592   0.19759
 Alpha virt. eigenvalues --    0.19970   0.20481   0.21679   0.22265   0.23621
 Alpha virt. eigenvalues --    0.24034   0.24835   0.24963   0.25455   0.25972
 Alpha virt. eigenvalues --    0.26572   0.27222   0.29539   0.30154   0.30372
 Alpha virt. eigenvalues --    0.31255   0.31444   0.33735   0.35014   0.35272
 Alpha virt. eigenvalues --    0.36415   0.36824   0.38684   0.39188   0.40110
 Alpha virt. eigenvalues --    0.41359   0.42494   0.44986   0.45881   0.47664
 Alpha virt. eigenvalues --    0.48093   0.48430   0.51191   0.52750   0.54270
 Alpha virt. eigenvalues --    0.55651   0.56000   0.57123   0.57837   0.58955
 Alpha virt. eigenvalues --    0.60781   0.63196   0.64755   0.65296   0.66114
 Alpha virt. eigenvalues --    0.66546   0.69158   0.69917   0.71174   0.71537
 Alpha virt. eigenvalues --    0.72750   0.73528   0.75931   0.76775   0.78285
 Alpha virt. eigenvalues --    0.79685   0.80762   0.83194   0.85386   0.87050
 Alpha virt. eigenvalues --    0.88635   0.88777   0.92089   0.92165   0.93431
 Alpha virt. eigenvalues --    0.94470   0.95840   0.96029   0.97869   0.99353
 Alpha virt. eigenvalues --    1.00613   1.02033   1.02642   1.03688   1.04757
 Alpha virt. eigenvalues --    1.05855   1.07123   1.08326   1.09731   1.11229
 Alpha virt. eigenvalues --    1.12166   1.13147   1.14969   1.16515   1.18805
 Alpha virt. eigenvalues --    1.20219   1.21669   1.23400   1.24077   1.25106
 Alpha virt. eigenvalues --    1.25583   1.27404   1.28368   1.29218   1.30520
 Alpha virt. eigenvalues --    1.31885   1.34258   1.35014   1.36672   1.38188
 Alpha virt. eigenvalues --    1.39057   1.40755   1.41874   1.43783   1.46818
 Alpha virt. eigenvalues --    1.47085   1.47767   1.48442   1.52374   1.52782
 Alpha virt. eigenvalues --    1.58841   1.60990   1.64295   1.69532   1.70612
 Alpha virt. eigenvalues --    1.74564   1.75096   1.77388   1.78578   1.83531
 Alpha virt. eigenvalues --    1.86621   1.87759   1.90534   1.92044   1.95303
 Alpha virt. eigenvalues --    2.01507   2.01852   2.05057   2.05344   2.06742
 Alpha virt. eigenvalues --    2.09315   2.12126   2.25486   2.27622   2.31607
 Alpha virt. eigenvalues --    2.37943   2.44928   2.46947   2.49737   2.51952
 Alpha virt. eigenvalues --    2.55101   2.67820   2.70234   2.71043   2.82073
 Alpha virt. eigenvalues --    2.98849   2.99106   3.00650   3.01515   3.04285
 Alpha virt. eigenvalues --    3.06011   3.07841   3.09816   3.22157   3.22658
 Alpha virt. eigenvalues --    3.23029   3.44292   3.45178   3.45788   3.47377
 Alpha virt. eigenvalues --    3.49067   3.49587   3.53628   3.56655   3.58172
 Alpha virt. eigenvalues --    3.69906   3.90309   3.91340   3.92529   3.99010
 Alpha virt. eigenvalues --    4.00557   4.00625   4.02160   4.02819   4.03486
 Alpha virt. eigenvalues --    4.04016   4.05015   4.06822   4.07794   4.10040
 Alpha virt. eigenvalues --    4.16964   4.17425   4.17899   4.22035   4.23604
 Alpha virt. eigenvalues --    4.30083   4.36487   4.37445   4.41004   4.43264
 Alpha virt. eigenvalues --    4.44485   4.46510   4.46993   4.49554   4.52270
 Alpha virt. eigenvalues --    4.54512   4.56531   4.60180   4.61923   4.64299
 Alpha virt. eigenvalues --    4.75165   4.82151   4.89348   4.89569   4.90036
 Alpha virt. eigenvalues --    4.92184   4.93213   4.94587   5.02405   5.02738
 Alpha virt. eigenvalues --    5.14313   5.14662   5.15796   5.16000   5.17489
 Alpha virt. eigenvalues --    5.18564   5.29722   5.30560   5.31653   5.41623
 Alpha virt. eigenvalues --    5.43631   5.47324   5.48382   5.52433   5.53152
 Alpha virt. eigenvalues --    5.62342   5.62866   5.66066   6.14086   6.14582
 Alpha virt. eigenvalues --    6.14821   6.24121   6.24173   6.80531   6.81603
 Alpha virt. eigenvalues --    6.84407   6.97105   7.65372   7.66530   7.68569
 Alpha virt. eigenvalues --    8.03962   8.06147   8.11901  10.29403  14.97312
 Alpha virt. eigenvalues --   52.32944
          Condensed to atoms (all electrons):
 Mulliken charges:
               1
     1  C   -0.010977
     2  H    0.000056
     3  H    0.000932
     4  H    0.021842
     5  H   -0.002246
     6  C    0.408334
     7  H   -0.072958
     8  H   -0.279079
     9  H   -0.059646
    10  H   -0.006259
 Sum of Mulliken charges =  -0.00000
 Mulliken charges with hydrogens summed into heavy atoms:
               1
     1  C    0.009608
     6  C   -0.009608
 Electronic spatial extent (au):  <R**2>=            610.2291
 Charge=             -0.0000 electrons
 Dipole moment (field-independent basis, Debye):
    X=             -0.0003    Y=              0.0001    Z=             -0.0004  Tot=              0.0005

 Test job not archived.
 1\1\GINC-CHIMERA-NODE27\SP\RM05\Gen\C2H8\CONNORNM\08-Dec-2018\0\\#T M0
 5/Gen test Massage SCF=(tight,maxcyc=40)\\M05 opt\\0,1\C,0,0.,0.,0.\H,
 0,0.51765985,0.,-0.97878202\H,0,-0.68337271,-0.86939102,0.05609765\H,0
 ,0.7484192,-0.0657477,0.81334612\H,0,-0.58270633,0.93513872,0.10933825
 \C,0,0.,0.,4.01141736\H,0,-0.95537421,0.55963778,4.01860277\H,0,0.3839
 8252,-0.08800408,5.04621138\H,0,-0.16774723,-1.01121662,3.59274354\H,0
 ,0.73913892,0.53958292,3.38811176\\Version=AS64L-G09RevD.01\HF=-45.879
 733\RMSD=2.979e-09\Dipole=-0.0001199,0.0000553,-0.0001426\Quadrupole=0
 .0000649,0.0004369,-0.0005018,0.0002022,-0.000647,0.000396\PG=C01 [X(C
 2H8)]\\@


 When I told the people of Northern Ireland that I was
 an atheist, a woman in the audience stood up and said,
 "Yes, but is it the God of the Catholics or the God
 of the Protestants in whom you don't believe?"
                               -- Quentin Crisp
 Job cpu time:       0 days  0 hours 15 minutes 46.8 seconds.
 File lengths (MBytes):  RWF=     41 Int=      0 D2E=      0 Chk=      4 Scr=      1
 Normal termination of Gaussian 09 at Sat Dec  8 14:10:11 2018.
