 Entering Gaussian System, Link 0=/data/szalewicgrp/connornm/opt/Gaussian/g09-M05-par/g09/g09
 AtFile(1): aug-cc-pVTZ.gbs
 Initial command:
 /data/szalewicgrp/connornm/opt/Gaussian/g09-M05-par/g09/l1.exe "/scratch/local/Gau-9615.inp" -scrdir="/scratch/local/"
 Entering Link 1 = /data/szalewicgrp/connornm/opt/Gaussian/g09-M05-par/g09/l1.exe PID=      9616.
  
 Copyright (c) 1988,1990,1992,1993,1995,1998,2003,2009,2013,
            Gaussian, Inc.  All Rights Reserved.
  
 This is part of the Gaussian(R) 09 program.  It is based on
 the Gaussian(R) 03 system (copyright 2003, Gaussian, Inc.),
 the Gaussian(R) 98 system (copyright 1998, Gaussian, Inc.),
 the Gaussian(R) 94 system (copyright 1995, Gaussian, Inc.),
 the Gaussian 92(TM) system (copyright 1992, Gaussian, Inc.),
 the Gaussian 90(TM) system (copyright 1990, Gaussian, Inc.),
 the Gaussian 88(TM) system (copyright 1988, Gaussian, Inc.),
 the Gaussian 86(TM) system (copyright 1986, Carnegie Mellon
 University), and the Gaussian 82(TM) system (copyright 1983,
 Carnegie Mellon University). Gaussian is a federally registered
 trademark of Gaussian, Inc.
  
 This software contains proprietary and confidential information,
 including trade secrets, belonging to Gaussian, Inc.
  
 This software is provided under written license and may be
 used, copied, transmitted, or stored only in accord with that
 written license.
  
 The following legend is applicable only to US Government
 contracts under FAR:
  
                    RESTRICTED RIGHTS LEGEND
  
 Use, reproduction and disclosure by the US Government is
 subject to restrictions as set forth in subparagraphs (a)
 and (c) of the Commercial Computer Software - Restricted
 Rights clause in FAR 52.227-19.
  
 Gaussian, Inc.
 340 Quinnipiac St., Bldg. 40, Wallingford CT 06492
  
  
 ---------------------------------------------------------------
 Warning -- This program may not be used in any manner that
 competes with the business of Gaussian, Inc. or will provide
 assistance to any competitor of Gaussian, Inc.  The licensee
 of this program is prohibited from giving any competitor of
 Gaussian, Inc. access to this program.  By using this program,
 the user acknowledges that Gaussian, Inc. is engaged in the
 business of creating and licensing software in the field of
 computational chemistry and represents and warrants to the
 licensee that it is not a competitor of Gaussian, Inc. and that
 it will not use this program in any manner prohibited above.
 ---------------------------------------------------------------
  

 Cite this work as:
 Gaussian 09, Revision D.01,
 M. J. Frisch, G. W. Trucks, H. B. Schlegel, G. E. Scuseria, 
 M. A. Robb, J. R. Cheeseman, G. Scalmani, V. Barone, B. Mennucci, 
 G. A. Petersson, H. Nakatsuji, M. Caricato, X. Li, H. P. Hratchian, 
 A. F. Izmaylov, J. Bloino, G. Zheng, J. L. Sonnenberg, M. Hada, 
 M. Ehara, K. Toyota, R. Fukuda, J. Hasegawa, M. Ishida, T. Nakajima, 
 Y. Honda, O. Kitao, H. Nakai, T. Vreven, J. A. Montgomery, Jr., 
 J. E. Peralta, F. Ogliaro, M. Bearpark, J. J. Heyd, E. Brothers, 
 K. N. Kudin, V. N. Staroverov, T. Keith, R. Kobayashi, J. Normand, 
 K. Raghavachari, A. Rendell, J. C. Burant, S. S. Iyengar, J. Tomasi, 
 M. Cossi, N. Rega, J. M. Millam, M. Klene, J. E. Knox, J. B. Cross, 
 V. Bakken, C. Adamo, J. Jaramillo, R. Gomperts, R. E. Stratmann, 
 O. Yazyev, A. J. Austin, R. Cammi, C. Pomelli, J. W. Ochterski, 
 R. L. Martin, K. Morokuma, V. G. Zakrzewski, G. A. Voth, 
 P. Salvador, J. J. Dannenberg, S. Dapprich, A. D. Daniels, 
 O. Farkas, J. B. Foresman, J. V. Ortiz, J. Cioslowski, 
 and D. J. Fox, Gaussian, Inc., Wallingford CT, 2013.
 
 ******************************************
 Gaussian 09:  AS64L-G09RevD.01 24-Apr-2013
                 8-Dec-2018 
 ******************************************
 %Chk=CH400161
 %Mem=2GB
 %NProcShared=16
 Will use up to   16 processors via shared memory.
 ---------------------------------------------
 #T M05/Gen test Massage SCF=(tight,maxcyc=40)
 ---------------------------------------------
 -------
 M05 opt
 -------
 Symbolic Z-matrix:
 Charge =  0 Multiplicity = 1
 6-Bq                  0.        0.        0. 
 1-Bq                  0.90629   0.        0.6361 
 1-Bq                 -0.62886  -0.87536   0.25352 
 1-Bq                 -0.57423   0.93026   0.17568 
 1-Bq                  0.2968   -0.0549   -1.06531 
 6                     0.        0.        3.1877 
 1                    -0.26068   0.09391   2.11568 
 1                     0.42398   0.95668   3.54962 
 1                    -0.91038  -0.2436    3.76894 
 1                     0.74709  -0.807     3.31654 
 
                    Distance matrix (angstroms):
                    1          2          3          4          5
     1  C    0.000000
     2  H    1.107242   0.000000
     3  H    1.107243   1.808119   0.000000
     4  H    1.107243   1.808119   1.808119   0.000000
     5  H    1.107243   1.808119   1.808119   1.808119   0.000000
     6  C    3.187696   2.707762   3.125875   3.204269   4.263701
     7  H    2.133749   1.886740   2.131357   2.135740   3.232898
     8  H    3.700646   3.104260   3.915237   3.518598   4.726206
     9  H    3.884979   3.629643   3.582814   3.795057   4.986268
    10  H    3.494113   2.803806   3.358570   3.824778   4.468670
                    6          7          8          9         10
     6  C    0.000000
     7  H    1.107242   0.000000
     8  H    1.107243   1.808119   0.000000
     9  H    1.107243   1.808119   1.808119   0.000000
    10  H    1.107243   1.808119   1.808119   1.808119   0.000000
 Symmetry turned off by external request.
 This structure is nearly, but not quite of a higher symmetry.
 Consider Symm=Loose if the higher symmetry is desired.
 Framework group  C1[X(C2H8)]
 Deg. of freedom    24
 Rotational constants (GHZ):     76.6916055      5.7403334      5.7403334
   276 basis functions,   360 primitive gaussians,   310 cartesian basis functions
     5 alpha electrons        5 beta electrons
       nuclear repulsion energy        13.2261670069 Hartrees.
 IMHF & INEx in M05                  614413                  385587
 NAtoms=   10 NActive=   10 NUniq=   10 SFac= 1.00D+00 NAtFMM=   60 NAOKFM=F Big=F
 ExpMin= 2.53D-02 ExpMax= 8.24D+03 ExpMxC= 2.81D+02 IAcc=3 IRadAn=         5 AccDes= 0.00D+00
 Harris functional with IExCor= 1009 and IRadAn=       5 diagonalized for initial guess.
 HarFok:  IExCor= 1009 AccDes= 0.00D+00 IRadAn=         5 IDoV= 1 UseB2=F ITyADJ=14
 ICtDFT=  3500011 ScaDFX=  1.000000  1.000000  1.000000  1.000000
 FoFCou: FMM=F IPFlag=           0 FMFlag=      100000 FMFlg1=           0
         NFxFlg=           0 DoJE=T BraDBF=F KetDBF=T FulRan=T
         wScrn=  0.000000 ICntrl=     500 IOpCl=  0 I1Cent=   200000004 NGrid=           0
         NMat0=    1 NMatS0=      1 NMatT0=    0 NMatD0=    1 NMtDS0=    0 NMtDT0=    0
 Symmetry not used in FoFCou.
 SCF Done:  E(RM05) =  -44.2937499515     A.U. after   10 cycles
            NFock= 10  Conv=0.12D-08     -V/T= 2.0242

 **********************************************************************

            Population analysis using the SCF density.

 **********************************************************************

 Alpha  occ. eigenvalues --  -11.62231  -0.92992  -0.62338  -0.62330  -0.62329
 Alpha virt. eigenvalues --   -0.06452  -0.00177  -0.00146  -0.00131   0.02300
 Alpha virt. eigenvalues --    0.02341   0.02473   0.03767   0.04950   0.05697
 Alpha virt. eigenvalues --    0.06042   0.07202   0.07515   0.08243   0.08906
 Alpha virt. eigenvalues --    0.09159   0.10710   0.11774   0.12692   0.14353
 Alpha virt. eigenvalues --    0.15935   0.18579   0.18977   0.19705   0.21595
 Alpha virt. eigenvalues --    0.21856   0.22911   0.23057   0.23539   0.24590
 Alpha virt. eigenvalues --    0.24704   0.26992   0.27399   0.27962   0.28202
 Alpha virt. eigenvalues --    0.28827   0.29802   0.30236   0.31576   0.33297
 Alpha virt. eigenvalues --    0.33726   0.34365   0.34741   0.34981   0.36591
 Alpha virt. eigenvalues --    0.38055   0.38622   0.40177   0.41941   0.42616
 Alpha virt. eigenvalues --    0.44450   0.44764   0.46484   0.48871   0.49686
 Alpha virt. eigenvalues --    0.50903   0.52029   0.53776   0.54137   0.57665
 Alpha virt. eigenvalues --    0.59640   0.60837   0.61503   0.62314   0.62635
 Alpha virt. eigenvalues --    0.63204   0.63864   0.65219   0.68067   0.69379
 Alpha virt. eigenvalues --    0.70751   0.73824   0.75409   0.76876   0.77126
 Alpha virt. eigenvalues --    0.78573   0.80454   0.80928   0.82964   0.84379
 Alpha virt. eigenvalues --    0.85399   0.85710   0.88087   0.88342   0.88937
 Alpha virt. eigenvalues --    0.90623   0.91857   0.93159   0.95476   0.96326
 Alpha virt. eigenvalues --    0.97665   0.98508   0.99322   1.00150   1.01083
 Alpha virt. eigenvalues --    1.02140   1.03641   1.04225   1.06234   1.07987
 Alpha virt. eigenvalues --    1.08622   1.10131   1.10363   1.12408   1.13025
 Alpha virt. eigenvalues --    1.14604   1.16775   1.18483   1.21164   1.22249
 Alpha virt. eigenvalues --    1.23613   1.25044   1.27525   1.29760   1.32189
 Alpha virt. eigenvalues --    1.34138   1.34368   1.34833   1.35641   1.35852
 Alpha virt. eigenvalues --    1.37864   1.39460   1.39975   1.42013   1.47735
 Alpha virt. eigenvalues --    1.48264   1.50816   1.52164   1.52898   1.56370
 Alpha virt. eigenvalues --    1.57717   1.62029   1.64712   1.66333   1.67349
 Alpha virt. eigenvalues --    1.69641   1.72889   1.76290   1.77028   1.78506
 Alpha virt. eigenvalues --    1.81010   1.82124   1.87055   1.90017   1.90336
 Alpha virt. eigenvalues --    1.91326   1.92369   1.93639   1.95041   2.00338
 Alpha virt. eigenvalues --    2.02349   2.04906   2.06555   2.06589   2.14632
 Alpha virt. eigenvalues --    2.16630   2.28575   2.30394   2.31398   2.38040
 Alpha virt. eigenvalues --    2.39115   2.51809   2.59116   2.62098   2.63247
 Alpha virt. eigenvalues --    2.65802   2.67794   2.70681   2.81075   2.90949
 Alpha virt. eigenvalues --    3.09851   3.11116   3.12260   3.13870   3.14543
 Alpha virt. eigenvalues --    3.16800   3.24739   3.29944   3.36938   3.38862
 Alpha virt. eigenvalues --    3.51883   3.56546   3.57983   3.58774   3.64129
 Alpha virt. eigenvalues --    3.64285   3.65575   3.67713   3.70191   3.71770
 Alpha virt. eigenvalues --    3.80551   3.90284   3.96122   3.98011   4.01808
 Alpha virt. eigenvalues --    4.02075   4.04617   4.05663   4.07731   4.12908
 Alpha virt. eigenvalues --    4.14306   4.16135   4.17050   4.19541   4.21361
 Alpha virt. eigenvalues --    4.21829   4.25848   4.28442   4.30488   4.30843
 Alpha virt. eigenvalues --    4.31444   4.34219   4.36968   4.45364   4.46475
 Alpha virt. eigenvalues --    4.51642   4.51873   4.54192   4.57827   4.59729
 Alpha virt. eigenvalues --    4.60621   4.64023   4.69811   4.71466   4.78528
 Alpha virt. eigenvalues --    4.83079   4.86837   4.92364   4.95807   4.99104
 Alpha virt. eigenvalues --    5.00874   5.02652   5.04592   5.06312   5.14093
 Alpha virt. eigenvalues --    5.15962   5.17760   5.19133   5.21420   5.22964
 Alpha virt. eigenvalues --    5.24887   5.31561   5.33532   5.36410   5.37035
 Alpha virt. eigenvalues --    5.45423   5.47780   5.50021   5.52343   5.61255
 Alpha virt. eigenvalues --    5.80786   5.83560   5.94012   6.04538   6.05742
 Alpha virt. eigenvalues --    6.05953   6.15439   6.15858   6.73439   6.75145
 Alpha virt. eigenvalues --    6.76152   6.89477   7.55346   7.57147   7.64330
 Alpha virt. eigenvalues --    7.97858   7.99390   8.09558  10.40475  16.10031
 Alpha virt. eigenvalues --   52.83391
          Condensed to atoms (all electrons):
 Mulliken charges:
               1
     1  C   -0.078626
     2  H    0.024900
     3  H    0.028689
     4  H    0.024726
     5  H   -0.027087
     6  C   -1.017255
     7  H    1.097434
     8  H    0.041668
     9  H   -0.112854
    10  H    0.018406
 Sum of Mulliken charges =   0.00000
 Mulliken charges with hydrogens summed into heavy atoms:
               1
     1  C   -0.027399
     6  C    0.027399
 Electronic spatial extent (au):  <R**2>=            399.2024
 Charge=             -0.0000 electrons
 Dipole moment (field-independent basis, Debye):
    X=              0.0004    Y=             -0.0001    Z=             -0.0000  Tot=              0.0004

 Test job not archived.
 1\1\GINC-CHIMERA-NODE56\SP\RM05\Gen\C2H8\CONNORNM\08-Dec-2018\0\\#T M0
 5/Gen test Massage SCF=(tight,maxcyc=40)\\M05 opt\\0,1\C,0,0.,0.,0.\H,
 0,0.90628788,0.,0.63610394\H,0,-0.62885962,-0.87535622,0.25352126\H,0,
 -0.5742268,0.93026068,0.17568325\H,0,0.29679854,-0.05490447,-1.0653084
 5\C,0,0.,0.,3.1876956\H,0,-0.26068006,0.09391244,2.1156824\H,0,0.42397
 507,0.95668381,3.54961712\H,0,-0.9103834,-0.24359948,3.76894195\H,0,0.
 74708839,-0.80699676,3.31654094\\Version=AS64L-G09RevD.01\HF=-44.29375
 \RMSD=1.250e-09\Dipole=0.0001656,-0.0000356,-0.0000138\Quadrupole=0.00
 11978,0.000441,-0.0016388,-0.0001022,0.0003218,-0.0004251\PG=C01 [X(C2
 H8)]\\@


 The impersonal hand of government can
 never replace the helping hand of a neighbor.
                        -- Hubert H. Humphrey
 Job cpu time:       0 days  0 hours 17 minutes 33.7 seconds.
 File lengths (MBytes):  RWF=     41 Int=      0 D2E=      0 Chk=      4 Scr=      1
 Normal termination of Gaussian 09 at Sat Dec  8 13:15:22 2018.
