 Entering Gaussian System, Link 0=/data/szalewicgrp/connornm/opt/Gaussian/g09-M05-par/g09/g09
 AtFile(1): aug-cc-pVTZ.gbs
 Initial command:
 /data/szalewicgrp/connornm/opt/Gaussian/g09-M05-par/g09/l1.exe "/scratch/local/Gau-5690.inp" -scrdir="/scratch/local/"
 Entering Link 1 = /data/szalewicgrp/connornm/opt/Gaussian/g09-M05-par/g09/l1.exe PID=      5691.
  
 Copyright (c) 1988,1990,1992,1993,1995,1998,2003,2009,2013,
            Gaussian, Inc.  All Rights Reserved.
  
 This is part of the Gaussian(R) 09 program.  It is based on
 the Gaussian(R) 03 system (copyright 2003, Gaussian, Inc.),
 the Gaussian(R) 98 system (copyright 1998, Gaussian, Inc.),
 the Gaussian(R) 94 system (copyright 1995, Gaussian, Inc.),
 the Gaussian 92(TM) system (copyright 1992, Gaussian, Inc.),
 the Gaussian 90(TM) system (copyright 1990, Gaussian, Inc.),
 the Gaussian 88(TM) system (copyright 1988, Gaussian, Inc.),
 the Gaussian 86(TM) system (copyright 1986, Carnegie Mellon
 University), and the Gaussian 82(TM) system (copyright 1983,
 Carnegie Mellon University). Gaussian is a federally registered
 trademark of Gaussian, Inc.
  
 This software contains proprietary and confidential information,
 including trade secrets, belonging to Gaussian, Inc.
  
 This software is provided under written license and may be
 used, copied, transmitted, or stored only in accord with that
 written license.
  
 The following legend is applicable only to US Government
 contracts under FAR:
  
                    RESTRICTED RIGHTS LEGEND
  
 Use, reproduction and disclosure by the US Government is
 subject to restrictions as set forth in subparagraphs (a)
 and (c) of the Commercial Computer Software - Restricted
 Rights clause in FAR 52.227-19.
  
 Gaussian, Inc.
 340 Quinnipiac St., Bldg. 40, Wallingford CT 06492
  
  
 ---------------------------------------------------------------
 Warning -- This program may not be used in any manner that
 competes with the business of Gaussian, Inc. or will provide
 assistance to any competitor of Gaussian, Inc.  The licensee
 of this program is prohibited from giving any competitor of
 Gaussian, Inc. access to this program.  By using this program,
 the user acknowledges that Gaussian, Inc. is engaged in the
 business of creating and licensing software in the field of
 computational chemistry and represents and warrants to the
 licensee that it is not a competitor of Gaussian, Inc. and that
 it will not use this program in any manner prohibited above.
 ---------------------------------------------------------------
  

 Cite this work as:
 Gaussian 09, Revision D.01,
 M. J. Frisch, G. W. Trucks, H. B. Schlegel, G. E. Scuseria, 
 M. A. Robb, J. R. Cheeseman, G. Scalmani, V. Barone, B. Mennucci, 
 G. A. Petersson, H. Nakatsuji, M. Caricato, X. Li, H. P. Hratchian, 
 A. F. Izmaylov, J. Bloino, G. Zheng, J. L. Sonnenberg, M. Hada, 
 M. Ehara, K. Toyota, R. Fukuda, J. Hasegawa, M. Ishida, T. Nakajima, 
 Y. Honda, O. Kitao, H. Nakai, T. Vreven, J. A. Montgomery, Jr., 
 J. E. Peralta, F. Ogliaro, M. Bearpark, J. J. Heyd, E. Brothers, 
 K. N. Kudin, V. N. Staroverov, T. Keith, R. Kobayashi, J. Normand, 
 K. Raghavachari, A. Rendell, J. C. Burant, S. S. Iyengar, J. Tomasi, 
 M. Cossi, N. Rega, J. M. Millam, M. Klene, J. E. Knox, J. B. Cross, 
 V. Bakken, C. Adamo, J. Jaramillo, R. Gomperts, R. E. Stratmann, 
 O. Yazyev, A. J. Austin, R. Cammi, C. Pomelli, J. W. Ochterski, 
 R. L. Martin, K. Morokuma, V. G. Zakrzewski, G. A. Voth, 
 P. Salvador, J. J. Dannenberg, S. Dapprich, A. D. Daniels, 
 O. Farkas, J. B. Foresman, J. V. Ortiz, J. Cioslowski, 
 and D. J. Fox, Gaussian, Inc., Wallingford CT, 2013.
 
 ******************************************
 Gaussian 09:  AS64L-G09RevD.01 24-Apr-2013
                 7-Dec-2018 
 ******************************************
 %Chk=CH400110
 %Mem=2GB
 %NProcShared=16
 Will use up to   16 processors via shared memory.
 ---------------------------------------------
 #T M05/Gen test Massage SCF=(tight,maxcyc=40)
 ---------------------------------------------
 -------
 M05 opt
 -------
 Symbolic Z-matrix:
 Charge =  0 Multiplicity = 1
 6-Bq                  0.        0.        0. 
 1-Bq                  1.04968   0.       -0.35235 
 1-Bq                 -0.0416   -0.38881   1.0359 
 1-Bq                 -0.39689   1.03342  -0.02256 
 1-Bq                 -0.6112   -0.64461  -0.66099 
 6                     0.        0.        3.27944 
 1                     0.65947  -0.82226   2.94037 
 1                    -0.41851  -0.24874   4.27391 
 1                     0.58506   0.93746   3.3492 
 1                    -0.82602   0.13354   2.55429 
 
                    Distance matrix (angstroms):
                    1          2          3          4          5
     1  C    0.000000
     2  H    1.107243   0.000000
     3  H    1.107243   1.808119   0.000000
     4  H    1.107242   1.808119   1.808119   0.000000
     5  H    1.107243   1.808119   1.808119   1.808119   0.000000
     6  C    3.279443   3.780444   2.277368   3.482625   4.039318
     7  H    3.123591   3.416198   2.075190   3.652180   3.823085
     8  H    4.301549   4.860015   3.262884   4.483750   4.954500
     9  H    3.526792   3.846581   2.739172   3.513143   4.473877
    10  H    2.687847   3.461881   1.787085   2.762980   3.315067
                    6          7          8          9         10
     6  C    0.000000
     7  H    1.107243   0.000000
     8  H    1.107243   1.808119   0.000000
     9  H    1.107243   1.808119   1.808119   0.000000
    10  H    1.107243   1.808119   1.808119   1.808119   0.000000
 Symmetry turned off by external request.
 This structure is nearly, but not quite of a higher symmetry.
 Consider Symm=Loose if the higher symmetry is desired.
 Framework group  C1[X(C2H8)]
 Deg. of freedom    24
 Rotational constants (GHZ):     76.6916054      5.4461272      5.4461272
   276 basis functions,   360 primitive gaussians,   310 cartesian basis functions
     5 alpha electrons        5 beta electrons
       nuclear repulsion energy        13.2261669734 Hartrees.
 IMHF & INEx in M05                  614413                  385587
 NAtoms=   10 NActive=   10 NUniq=   10 SFac= 1.00D+00 NAtFMM=   60 NAOKFM=F Big=F
 ExpMin= 2.53D-02 ExpMax= 8.24D+03 ExpMxC= 2.81D+02 IAcc=3 IRadAn=         5 AccDes= 0.00D+00
 Harris functional with IExCor= 1009 and IRadAn=       5 diagonalized for initial guess.
 HarFok:  IExCor= 1009 AccDes= 0.00D+00 IRadAn=         5 IDoV= 1 UseB2=F ITyADJ=14
 ICtDFT=  3500011 ScaDFX=  1.000000  1.000000  1.000000  1.000000
 FoFCou: FMM=F IPFlag=           0 FMFlag=      100000 FMFlg1=           0
         NFxFlg=           0 DoJE=T BraDBF=F KetDBF=T FulRan=T
         wScrn=  0.000000 ICntrl=     500 IOpCl=  0 I1Cent=   200000004 NGrid=           0
         NMat0=    1 NMatS0=      1 NMatT0=    0 NMatD0=    1 NMtDS0=    0 NMtDT0=    0
 Symmetry not used in FoFCou.
 SCF Done:  E(RM05) =  -45.8802878835     A.U. after   10 cycles
            NFock= 10  Conv=0.61D-08     -V/T= 2.0333

 **********************************************************************

            Population analysis using the SCF density.

 **********************************************************************

 Alpha  occ. eigenvalues --  -12.05220  -0.99440  -0.71155  -0.71151  -0.71148
 Alpha virt. eigenvalues --   -0.08951  -0.01736  -0.01726  -0.01719  -0.00526
 Alpha virt. eigenvalues --   -0.00365  -0.00310   0.03346   0.03639   0.04277
 Alpha virt. eigenvalues --    0.05406   0.05967   0.06420   0.07157   0.07924
 Alpha virt. eigenvalues --    0.08791   0.09982   0.10955   0.11680   0.13174
 Alpha virt. eigenvalues --    0.14875   0.17703   0.19060   0.19548   0.19971
 Alpha virt. eigenvalues --    0.20315   0.20830   0.21765   0.22867   0.23343
 Alpha virt. eigenvalues --    0.24421   0.24801   0.25698   0.25788   0.26412
 Alpha virt. eigenvalues --    0.27199   0.28413   0.28981   0.29998   0.30534
 Alpha virt. eigenvalues --    0.33264   0.34275   0.34646   0.35425   0.37262
 Alpha virt. eigenvalues --    0.38154   0.39295   0.39743   0.40244   0.40893
 Alpha virt. eigenvalues --    0.42744   0.44589   0.45908   0.46566   0.47392
 Alpha virt. eigenvalues --    0.48892   0.51372   0.52121   0.53010   0.54146
 Alpha virt. eigenvalues --    0.55850   0.56792   0.57844   0.59449   0.60018
 Alpha virt. eigenvalues --    0.62602   0.63401   0.64104   0.65517   0.65937
 Alpha virt. eigenvalues --    0.68312   0.69315   0.70242   0.71640   0.73092
 Alpha virt. eigenvalues --    0.74807   0.76466   0.77213   0.78417   0.80240
 Alpha virt. eigenvalues --    0.81515   0.82560   0.85427   0.86386   0.87965
 Alpha virt. eigenvalues --    0.88858   0.89972   0.91926   0.93240   0.94296
 Alpha virt. eigenvalues --    0.96446   0.97053   0.98266   1.00380   1.01046
 Alpha virt. eigenvalues --    1.02058   1.03159   1.03778   1.05431   1.06438
 Alpha virt. eigenvalues --    1.07974   1.09963   1.11244   1.13299   1.13785
 Alpha virt. eigenvalues --    1.15851   1.17811   1.18842   1.21039   1.22115
 Alpha virt. eigenvalues --    1.22838   1.23689   1.24319   1.25513   1.27171
 Alpha virt. eigenvalues --    1.27774   1.29802   1.29938   1.31096   1.33633
 Alpha virt. eigenvalues --    1.35244   1.35560   1.36801   1.38888   1.41380
 Alpha virt. eigenvalues --    1.42791   1.45688   1.47308   1.50200   1.50500
 Alpha virt. eigenvalues --    1.51973   1.56297   1.56848   1.59122   1.60987
 Alpha virt. eigenvalues --    1.64834   1.65424   1.70572   1.73414   1.74498
 Alpha virt. eigenvalues --    1.76763   1.78177   1.80561   1.84828   1.86149
 Alpha virt. eigenvalues --    1.87616   1.90975   1.93036   1.96389   1.99466
 Alpha virt. eigenvalues --    2.01459   2.01998   2.05758   2.05911   2.09009
 Alpha virt. eigenvalues --    2.13042   2.22492   2.28936   2.30656   2.36659
 Alpha virt. eigenvalues --    2.44078   2.46562   2.46933   2.55944   2.59228
 Alpha virt. eigenvalues --    2.62122   2.66098   2.67511   2.70141   2.94067
 Alpha virt. eigenvalues --    3.00341   3.02101   3.05567   3.09875   3.10720
 Alpha virt. eigenvalues --    3.13219   3.16976   3.22351   3.24739   3.26086
 Alpha virt. eigenvalues --    3.30795   3.46532   3.46784   3.49108   3.50527
 Alpha virt. eigenvalues --    3.52153   3.55742   3.57048   3.60711   3.64043
 Alpha virt. eigenvalues --    3.78915   3.90599   3.91603   3.93218   3.94897
 Alpha virt. eigenvalues --    3.96519   4.00577   4.03017   4.04482   4.06438
 Alpha virt. eigenvalues --    4.09220   4.10141   4.12931   4.14402   4.16870
 Alpha virt. eigenvalues --    4.17551   4.20903   4.25340   4.27560   4.31792
 Alpha virt. eigenvalues --    4.34763   4.36081   4.36741   4.39868   4.42124
 Alpha virt. eigenvalues --    4.46406   4.48366   4.48812   4.51111   4.57199
 Alpha virt. eigenvalues --    4.58207   4.59045   4.60221   4.63338   4.73583
 Alpha virt. eigenvalues --    4.83228   4.84615   4.86986   4.88072   4.89672
 Alpha virt. eigenvalues --    4.91499   4.93782   4.94142   5.03577   5.08028
 Alpha virt. eigenvalues --    5.09512   5.11229   5.17960   5.18935   5.21033
 Alpha virt. eigenvalues --    5.24532   5.28733   5.29460   5.31717   5.41134
 Alpha virt. eigenvalues --    5.45589   5.45953   5.47266   5.49792   5.63724
 Alpha virt. eigenvalues --    5.65106   5.67885   5.79825   6.10776   6.12001
 Alpha virt. eigenvalues --    6.15844   6.19940   6.20315   6.78195   6.80005
 Alpha virt. eigenvalues --    6.91220   6.96249   7.59183   7.66886   7.68415
 Alpha virt. eigenvalues --    8.02139   8.06853   8.14885  10.37562  15.24934
 Alpha virt. eigenvalues --   53.37263
          Condensed to atoms (all electrons):
 Mulliken charges:
               1
     1  C    0.036662
     2  H    0.000333
     3  H    0.156887
     4  H    0.003554
     5  H    0.009164
     6  C    0.364199
     7  H   -0.106787
     8  H   -0.477202
     9  H   -0.077240
    10  H    0.090431
 Sum of Mulliken charges =   0.00000
 Mulliken charges with hydrogens summed into heavy atoms:
               1
     1  C    0.206600
     6  C   -0.206600
 Electronic spatial extent (au):  <R**2>=            419.6479
 Charge=              0.0000 electrons
 Dipole moment (field-independent basis, Debye):
    X=             -0.0003    Y=              0.0003    Z=              0.0002  Tot=              0.0004

 Test job not archived.
 1\1\GINC-CHIMERA-NODE47\SP\RM05\Gen\C2H8\CONNORNM\07-Dec-2018\0\\#T M0
 5/Gen test Massage SCF=(tight,maxcyc=40)\\M05 opt\\0,1\C,0,0.,0.,0.\H,
 0,1.04968352,0.,-0.35234993\H,0,-0.04159726,-0.38881131,1.03589642\H,0
 ,-0.39689096,1.03341894,-0.02255687\H,0,-0.6111953,-0.64460763,-0.6609
 8961\C,0,0.,0.,3.27944288\H,0,0.65947261,-0.82226168,2.94037421\H,0,-0
 .41851151,-0.24873753,4.27390943\H,0,0.585055,0.93745959,3.34920053\H,
 0,-0.82601609,0.13353963,2.55428735\\Version=AS64L-G09RevD.01\HF=-45.8
 802879\RMSD=6.094e-09\Dipole=-0.0000986,0.0001096,0.0000872\Quadrupole
 =-0.0015152,-0.0010599,0.0025751,0.0012791,-0.0013672,0.0013865\PG=C01
  [X(C2H8)]\\@


 We find comfort among those who agree with us -- growth among those who don't.
 -- Frank A. Clark
 Job cpu time:       0 days  0 hours 17 minutes 40.3 seconds.
 File lengths (MBytes):  RWF=     41 Int=      0 D2E=      0 Chk=      4 Scr=      1
 Normal termination of Gaussian 09 at Fri Dec  7 12:01:01 2018.
