 Entering Gaussian System, Link 0=/data/szalewicgrp/connornm/opt/Gaussian/g09-M05-par/g09/g09
 AtFile(1): aug-cc-pVTZ.gbs
 Initial command:
 /data/szalewicgrp/connornm/opt/Gaussian/g09-M05-par/g09/l1.exe "/scratch/local/Gau-18283.inp" -scrdir="/scratch/local/"
 Entering Link 1 = /data/szalewicgrp/connornm/opt/Gaussian/g09-M05-par/g09/l1.exe PID=     18284.
  
 Copyright (c) 1988,1990,1992,1993,1995,1998,2003,2009,2013,
            Gaussian, Inc.  All Rights Reserved.
  
 This is part of the Gaussian(R) 09 program.  It is based on
 the Gaussian(R) 03 system (copyright 2003, Gaussian, Inc.),
 the Gaussian(R) 98 system (copyright 1998, Gaussian, Inc.),
 the Gaussian(R) 94 system (copyright 1995, Gaussian, Inc.),
 the Gaussian 92(TM) system (copyright 1992, Gaussian, Inc.),
 the Gaussian 90(TM) system (copyright 1990, Gaussian, Inc.),
 the Gaussian 88(TM) system (copyright 1988, Gaussian, Inc.),
 the Gaussian 86(TM) system (copyright 1986, Carnegie Mellon
 University), and the Gaussian 82(TM) system (copyright 1983,
 Carnegie Mellon University). Gaussian is a federally registered
 trademark of Gaussian, Inc.
  
 This software contains proprietary and confidential information,
 including trade secrets, belonging to Gaussian, Inc.
  
 This software is provided under written license and may be
 used, copied, transmitted, or stored only in accord with that
 written license.
  
 The following legend is applicable only to US Government
 contracts under FAR:
  
                    RESTRICTED RIGHTS LEGEND
  
 Use, reproduction and disclosure by the US Government is
 subject to restrictions as set forth in subparagraphs (a)
 and (c) of the Commercial Computer Software - Restricted
 Rights clause in FAR 52.227-19.
  
 Gaussian, Inc.
 340 Quinnipiac St., Bldg. 40, Wallingford CT 06492
  
  
 ---------------------------------------------------------------
 Warning -- This program may not be used in any manner that
 competes with the business of Gaussian, Inc. or will provide
 assistance to any competitor of Gaussian, Inc.  The licensee
 of this program is prohibited from giving any competitor of
 Gaussian, Inc. access to this program.  By using this program,
 the user acknowledges that Gaussian, Inc. is engaged in the
 business of creating and licensing software in the field of
 computational chemistry and represents and warrants to the
 licensee that it is not a competitor of Gaussian, Inc. and that
 it will not use this program in any manner prohibited above.
 ---------------------------------------------------------------
  

 Cite this work as:
 Gaussian 09, Revision D.01,
 M. J. Frisch, G. W. Trucks, H. B. Schlegel, G. E. Scuseria, 
 M. A. Robb, J. R. Cheeseman, G. Scalmani, V. Barone, B. Mennucci, 
 G. A. Petersson, H. Nakatsuji, M. Caricato, X. Li, H. P. Hratchian, 
 A. F. Izmaylov, J. Bloino, G. Zheng, J. L. Sonnenberg, M. Hada, 
 M. Ehara, K. Toyota, R. Fukuda, J. Hasegawa, M. Ishida, T. Nakajima, 
 Y. Honda, O. Kitao, H. Nakai, T. Vreven, J. A. Montgomery, Jr., 
 J. E. Peralta, F. Ogliaro, M. Bearpark, J. J. Heyd, E. Brothers, 
 K. N. Kudin, V. N. Staroverov, T. Keith, R. Kobayashi, J. Normand, 
 K. Raghavachari, A. Rendell, J. C. Burant, S. S. Iyengar, J. Tomasi, 
 M. Cossi, N. Rega, J. M. Millam, M. Klene, J. E. Knox, J. B. Cross, 
 V. Bakken, C. Adamo, J. Jaramillo, R. Gomperts, R. E. Stratmann, 
 O. Yazyev, A. J. Austin, R. Cammi, C. Pomelli, J. W. Ochterski, 
 R. L. Martin, K. Morokuma, V. G. Zakrzewski, G. A. Voth, 
 P. Salvador, J. J. Dannenberg, S. Dapprich, A. D. Daniels, 
 O. Farkas, J. B. Foresman, J. V. Ortiz, J. Cioslowski, 
 and D. J. Fox, Gaussian, Inc., Wallingford CT, 2013.
 
 ******************************************
 Gaussian 09:  AS64L-G09RevD.01 24-Apr-2013
                 8-Dec-2018 
 ******************************************
 %Chk=CH400077
 %Mem=2GB
 %NProcShared=16
 Will use up to   16 processors via shared memory.
 ---------------------------------------------
 #T M05/Gen test Massage SCF=(tight,maxcyc=40)
 ---------------------------------------------
 -------
 M05 opt
 -------
 Symbolic Z-matrix:
 Charge =  0 Multiplicity = 1
 6-Bq                  0.        0.        0. 
 1-Bq                  0.77973   0.       -0.78613 
 1-Bq                  0.34526   0.60269   0.86229 
 1-Bq                 -0.93307   0.43683  -0.40564 
 1-Bq                 -0.19192  -1.03952   0.32948 
 6                     0.        0.        3.24362 
 1                    -0.70606   0.84547   3.13113 
 1                    -0.18912  -0.51321   4.20634 
 1                    -0.14388  -0.71442   2.41002 
 1                     1.03907   0.38216   3.22698 
 
                    Distance matrix (angstroms):
                    1          2          3          4          5
     1  C    0.000000
     2  H    1.107243   0.000000
     3  H    1.107242   1.808119   0.000000
     4  H    1.107243   1.808119   1.808119   0.000000
     5  H    1.107243   1.808119   1.808119   1.808119   0.000000
     6  C    3.243616   4.104492   2.480556   3.791899   3.099938
     7  H    3.319236   4.274033   2.512343   3.567531   3.415665
     8  H    4.241747   5.111440   3.565593   4.767215   3.912418
     9  H    2.517792   3.402768   2.090335   3.142625   2.106330
    10  H    3.411612   4.039600   2.474216   4.133791   3.454273
                    6          7          8          9         10
     6  C    0.000000
     7  H    1.107242   0.000000
     8  H    1.107242   1.808119   0.000000
     9  H    1.107243   1.808119   1.808119   0.000000
    10  H    1.107243   1.808119   1.808119   1.808119   0.000000
 Symmetry turned off by external request.
 This structure is nearly, but not quite of a higher symmetry.
 Consider Symm=Loose if the higher symmetry is desired.
 Framework group  C1[X(C2H8)]
 Deg. of freedom    24
 Rotational constants (GHZ):     76.6916054      5.5583321      5.5583321
   276 basis functions,   360 primitive gaussians,   310 cartesian basis functions
     5 alpha electrons        5 beta electrons
       nuclear repulsion energy        13.2261669954 Hartrees.
 IMHF & INEx in M05                  614413                  385587
 NAtoms=   10 NActive=   10 NUniq=   10 SFac= 1.00D+00 NAtFMM=   60 NAOKFM=F Big=F
 ExpMin= 2.53D-02 ExpMax= 8.24D+03 ExpMxC= 2.81D+02 IAcc=3 IRadAn=         5 AccDes= 0.00D+00
 Harris functional with IExCor= 1009 and IRadAn=       5 diagonalized for initial guess.
 HarFok:  IExCor= 1009 AccDes= 0.00D+00 IRadAn=         5 IDoV= 1 UseB2=F ITyADJ=14
 ICtDFT=  3500011 ScaDFX=  1.000000  1.000000  1.000000  1.000000
 FoFCou: FMM=F IPFlag=           0 FMFlag=      100000 FMFlg1=           0
         NFxFlg=           0 DoJE=T BraDBF=F KetDBF=T FulRan=T
         wScrn=  0.000000 ICntrl=     500 IOpCl=  0 I1Cent=   200000004 NGrid=           0
         NMat0=    1 NMatS0=      1 NMatT0=    0 NMatD0=    1 NMtDS0=    0 NMtDT0=    0
 Symmetry not used in FoFCou.
 SCF Done:  E(RM05) =  -45.8805317545     A.U. after   10 cycles
            NFock= 10  Conv=0.71D-08     -V/T= 2.0331

 **********************************************************************

            Population analysis using the SCF density.

 **********************************************************************

 Alpha  occ. eigenvalues --  -12.05218  -0.99440  -0.71147  -0.71145  -0.71142
 Alpha virt. eigenvalues --   -0.08956  -0.01751  -0.01730  -0.01717  -0.00569
 Alpha virt. eigenvalues --   -0.00317  -0.00254   0.03176   0.03929   0.04533
 Alpha virt. eigenvalues --    0.05494   0.05753   0.06206   0.07068   0.07931
 Alpha virt. eigenvalues --    0.08880   0.09230   0.10951   0.12754   0.14148
 Alpha virt. eigenvalues --    0.15327   0.17411   0.18104   0.19445   0.20015
 Alpha virt. eigenvalues --    0.20424   0.21194   0.21252   0.22355   0.23539
 Alpha virt. eigenvalues --    0.24487   0.24848   0.24943   0.26331   0.26739
 Alpha virt. eigenvalues --    0.27314   0.27829   0.29264   0.30011   0.31498
 Alpha virt. eigenvalues --    0.34367   0.34789   0.35221   0.36423   0.37103
 Alpha virt. eigenvalues --    0.37783   0.38421   0.40553   0.40925   0.41335
 Alpha virt. eigenvalues --    0.43031   0.44022   0.44846   0.46139   0.47181
 Alpha virt. eigenvalues --    0.48606   0.52444   0.53113   0.53554   0.54802
 Alpha virt. eigenvalues --    0.56052   0.57621   0.57660   0.59029   0.60178
 Alpha virt. eigenvalues --    0.60904   0.62554   0.63622   0.64210   0.64718
 Alpha virt. eigenvalues --    0.66191   0.68763   0.71646   0.72469   0.73331
 Alpha virt. eigenvalues --    0.75109   0.76658   0.77974   0.79032   0.80241
 Alpha virt. eigenvalues --    0.81977   0.82881   0.85180   0.86397   0.88266
 Alpha virt. eigenvalues --    0.89143   0.89430   0.90607   0.93005   0.94627
 Alpha virt. eigenvalues --    0.95865   0.97083   0.97384   1.00727   1.00921
 Alpha virt. eigenvalues --    1.01468   1.02835   1.04312   1.05477   1.06806
 Alpha virt. eigenvalues --    1.07501   1.09161   1.10918   1.12304   1.14357
 Alpha virt. eigenvalues --    1.15645   1.16824   1.18912   1.20729   1.22369
 Alpha virt. eigenvalues --    1.23772   1.24540   1.25868   1.26539   1.27876
 Alpha virt. eigenvalues --    1.28760   1.29899   1.30553   1.31261   1.33513
 Alpha virt. eigenvalues --    1.34212   1.35573   1.36336   1.38526   1.41781
 Alpha virt. eigenvalues --    1.43232   1.44143   1.45717   1.49220   1.50904
 Alpha virt. eigenvalues --    1.51425   1.55556   1.57686   1.58983   1.63376
 Alpha virt. eigenvalues --    1.64454   1.66538   1.68531   1.73698   1.75806
 Alpha virt. eigenvalues --    1.77180   1.80294   1.82334   1.84586   1.85264
 Alpha virt. eigenvalues --    1.87273   1.89368   1.92774   1.96455   1.98221
 Alpha virt. eigenvalues --    1.99285   2.00481   2.04073   2.04354   2.11355
 Alpha virt. eigenvalues --    2.15801   2.25067   2.28268   2.31474   2.33900
 Alpha virt. eigenvalues --    2.42490   2.45327   2.51932   2.53454   2.55142
 Alpha virt. eigenvalues --    2.59164   2.65121   2.66070   2.67779   2.80232
 Alpha virt. eigenvalues --    2.99662   3.01749   3.05557   3.09289   3.10611
 Alpha virt. eigenvalues --    3.12771   3.14172   3.17248   3.22599   3.28864
 Alpha virt. eigenvalues --    3.31245   3.47195   3.49044   3.49180   3.50652
 Alpha virt. eigenvalues --    3.52865   3.54860   3.58116   3.58696   3.62222
 Alpha virt. eigenvalues --    3.72938   3.90958   3.91950   3.94068   3.95993
 Alpha virt. eigenvalues --    3.97431   3.99795   4.03530   4.04583   4.05230
 Alpha virt. eigenvalues --    4.06334   4.07516   4.08453   4.11558   4.18553
 Alpha virt. eigenvalues --    4.20284   4.20857   4.25680   4.26550   4.31499
 Alpha virt. eigenvalues --    4.31826   4.34282   4.37688   4.38923   4.45084
 Alpha virt. eigenvalues --    4.46570   4.48159   4.49526   4.52563   4.54462
 Alpha virt. eigenvalues --    4.55905   4.56727   4.58990   4.67019   4.69015
 Alpha virt. eigenvalues --    4.82202   4.86551   4.88479   4.90157   4.90713
 Alpha virt. eigenvalues --    4.90922   4.91839   4.94080   5.02513   5.02747
 Alpha virt. eigenvalues --    5.10625   5.13859   5.16699   5.19561   5.21534
 Alpha virt. eigenvalues --    5.23180   5.27241   5.29601   5.31586   5.39035
 Alpha virt. eigenvalues --    5.43685   5.46911   5.48431   5.48903   5.52511
 Alpha virt. eigenvalues --    5.64592   5.67961   5.73058   6.09776   6.11889
 Alpha virt. eigenvalues --    6.16717   6.19790   6.20035   6.78284   6.78973
 Alpha virt. eigenvalues --    6.83630   6.97480   7.60245   7.64610   7.65765
 Alpha virt. eigenvalues --    8.03621   8.07575   8.11478  10.28795  15.48762
 Alpha virt. eigenvalues --   52.55542
          Condensed to atoms (all electrons):
 Mulliken charges:
               1
     1  C   -0.021509
     2  H    0.001938
     3  H    0.145908
     4  H    0.001174
     5  H   -0.033348
     6  C    0.233576
     7  H   -0.124310
     8  H   -0.780719
     9  H    0.676406
    10  H   -0.099114
 Sum of Mulliken charges =  -0.00000
 Mulliken charges with hydrogens summed into heavy atoms:
               1
     1  C    0.094163
     6  C   -0.094163
 Electronic spatial extent (au):  <R**2>=            411.3035
 Charge=             -0.0000 electrons
 Dipole moment (field-independent basis, Debye):
    X=             -0.0003    Y=             -0.0001    Z=             -0.0000  Tot=              0.0003

 Test job not archived.
 1\1\GINC-CHIMERA-NODE56\SP\RM05\Gen\C2H8\CONNORNM\08-Dec-2018\0\\#T M0
 5/Gen test Massage SCF=(tight,maxcyc=40)\\M05 opt\\0,1\C,0,0.,0.,0.\H,
 0,0.77973168,0.,-0.7861326\H,0,0.34526279,0.60269015,0.86229005\H,0,-0
 .93307366,0.43682659,-0.40563781\H,0,-0.19192081,-1.03951674,0.3294803
 6\C,0,0.,0.,3.24361619\H,0,-0.70605755,0.8454681,3.13113342\H,0,-0.189
 12447,-0.51321311,4.20633639\H,0,-0.14388477,-0.71441905,2.41001643\H,
 0,1.03906679,0.38216405,3.2269785\\Version=AS64L-G09RevD.01\HF=-45.880
 5318\RMSD=7.111e-09\Dipole=-0.0001123,-0.0000244,-0.0000038\Quadrupole
 =-0.0010815,-0.0000696,0.0011511,0.0001627,-0.0009374,-0.0012329\PG=C0
 1 [X(C2H8)]\\@


 I do not feel obliged to believe that the same God who
 has endowed us with sense, reason, and intellect has
 intended us to forgo their use.
                   --Galileo Galilei
 Job cpu time:       0 days  0 hours 17 minutes 32.3 seconds.
 File lengths (MBytes):  RWF=     41 Int=      0 D2E=      0 Chk=      4 Scr=      1
 Normal termination of Gaussian 09 at Sat Dec  8 14:11:36 2018.
