 Entering Gaussian System, Link 0=/data/szalewicgrp/connornm/opt/Gaussian/g09-M05-par/g09/g09
 AtFile(1): aug-cc-pVTZ.gbs
 Initial command:
 /data/szalewicgrp/connornm/opt/Gaussian/g09-M05-par/g09/l1.exe "/scratch/local/Gau-39171.inp" -scrdir="/scratch/local/"
 Entering Link 1 = /data/szalewicgrp/connornm/opt/Gaussian/g09-M05-par/g09/l1.exe PID=     39172.
  
 Copyright (c) 1988,1990,1992,1993,1995,1998,2003,2009,2013,
            Gaussian, Inc.  All Rights Reserved.
  
 This is part of the Gaussian(R) 09 program.  It is based on
 the Gaussian(R) 03 system (copyright 2003, Gaussian, Inc.),
 the Gaussian(R) 98 system (copyright 1998, Gaussian, Inc.),
 the Gaussian(R) 94 system (copyright 1995, Gaussian, Inc.),
 the Gaussian 92(TM) system (copyright 1992, Gaussian, Inc.),
 the Gaussian 90(TM) system (copyright 1990, Gaussian, Inc.),
 the Gaussian 88(TM) system (copyright 1988, Gaussian, Inc.),
 the Gaussian 86(TM) system (copyright 1986, Carnegie Mellon
 University), and the Gaussian 82(TM) system (copyright 1983,
 Carnegie Mellon University). Gaussian is a federally registered
 trademark of Gaussian, Inc.
  
 This software contains proprietary and confidential information,
 including trade secrets, belonging to Gaussian, Inc.
  
 This software is provided under written license and may be
 used, copied, transmitted, or stored only in accord with that
 written license.
  
 The following legend is applicable only to US Government
 contracts under FAR:
  
                    RESTRICTED RIGHTS LEGEND
  
 Use, reproduction and disclosure by the US Government is
 subject to restrictions as set forth in subparagraphs (a)
 and (c) of the Commercial Computer Software - Restricted
 Rights clause in FAR 52.227-19.
  
 Gaussian, Inc.
 340 Quinnipiac St., Bldg. 40, Wallingford CT 06492
  
  
 ---------------------------------------------------------------
 Warning -- This program may not be used in any manner that
 competes with the business of Gaussian, Inc. or will provide
 assistance to any competitor of Gaussian, Inc.  The licensee
 of this program is prohibited from giving any competitor of
 Gaussian, Inc. access to this program.  By using this program,
 the user acknowledges that Gaussian, Inc. is engaged in the
 business of creating and licensing software in the field of
 computational chemistry and represents and warrants to the
 licensee that it is not a competitor of Gaussian, Inc. and that
 it will not use this program in any manner prohibited above.
 ---------------------------------------------------------------
  

 Cite this work as:
 Gaussian 09, Revision D.01,
 M. J. Frisch, G. W. Trucks, H. B. Schlegel, G. E. Scuseria, 
 M. A. Robb, J. R. Cheeseman, G. Scalmani, V. Barone, B. Mennucci, 
 G. A. Petersson, H. Nakatsuji, M. Caricato, X. Li, H. P. Hratchian, 
 A. F. Izmaylov, J. Bloino, G. Zheng, J. L. Sonnenberg, M. Hada, 
 M. Ehara, K. Toyota, R. Fukuda, J. Hasegawa, M. Ishida, T. Nakajima, 
 Y. Honda, O. Kitao, H. Nakai, T. Vreven, J. A. Montgomery, Jr., 
 J. E. Peralta, F. Ogliaro, M. Bearpark, J. J. Heyd, E. Brothers, 
 K. N. Kudin, V. N. Staroverov, T. Keith, R. Kobayashi, J. Normand, 
 K. Raghavachari, A. Rendell, J. C. Burant, S. S. Iyengar, J. Tomasi, 
 M. Cossi, N. Rega, J. M. Millam, M. Klene, J. E. Knox, J. B. Cross, 
 V. Bakken, C. Adamo, J. Jaramillo, R. Gomperts, R. E. Stratmann, 
 O. Yazyev, A. J. Austin, R. Cammi, C. Pomelli, J. W. Ochterski, 
 R. L. Martin, K. Morokuma, V. G. Zakrzewski, G. A. Voth, 
 P. Salvador, J. J. Dannenberg, S. Dapprich, A. D. Daniels, 
 O. Farkas, J. B. Foresman, J. V. Ortiz, J. Cioslowski, 
 and D. J. Fox, Gaussian, Inc., Wallingford CT, 2013.
 
 ******************************************
 Gaussian 09:  AS64L-G09RevD.01 24-Apr-2013
                 8-Dec-2018 
 ******************************************
 %Chk=CH400314
 %Mem=2GB
 %NProcShared=16
 Will use up to   16 processors via shared memory.
 ---------------------------------------------
 #T M05/Gen test Massage SCF=(tight,maxcyc=40)
 ---------------------------------------------
 -------
 M05 opt
 -------
 Symbolic Z-matrix:
 Charge =  0 Multiplicity = 1
 6-Bq                  0.        0.        0. 
 1-Bq                  0.98672   0.        0.50237 
 1-Bq                 -0.51761   0.95749   0.20318 
 1-Bq                  0.14167  -0.11856  -1.09172 
 1-Bq                 -0.61078  -0.83893   0.38617 
 6                     0.        0.        3.33839 
 1                     0.01762   0.00023   4.44549 
 1                    -1.03221  -0.19015   2.98572 
 1                     0.34271   0.98391   2.9636 
 1                     0.67189  -0.79399   2.95873 
 
                    Distance matrix (angstroms):
                    1          2          3          4          5
     1  C    0.000000
     2  H    1.107243   0.000000
     3  H    1.107242   1.808119   0.000000
     4  H    1.107243   1.808119   1.808119   0.000000
     5  H    1.107242   1.808119   1.808119   1.808119   0.000000
     6  C    3.338386   3.002768   3.318766   4.433960   3.129282
     7  H    4.445524   4.060463   4.381778   5.539875   4.192505
     8  H    3.164833   3.206134   3.053593   4.243666   2.712229
     9  H    3.141411   2.727729   2.891498   4.207317   3.297728
    10  H    3.136228   2.600625   3.474998   4.140473   2.874940
                    6          7          8          9         10
     6  C    0.000000
     7  H    1.107243   0.000000
     8  H    1.107243   1.808119   0.000000
     9  H    1.107243   1.808119   1.808119   0.000000
    10  H    1.107242   1.808119   1.808119   1.808119   0.000000
 Symmetry turned off by external request.
 This structure is nearly, but not quite of a higher symmetry.
 Consider Symm=Loose if the higher symmetry is desired.
 Framework group  C1[X(C2H8)]
 Deg. of freedom    24
 Rotational constants (GHZ):     76.6916054      5.2686037      5.2686037
   276 basis functions,   360 primitive gaussians,   310 cartesian basis functions
     5 alpha electrons        5 beta electrons
       nuclear repulsion energy        13.2261669655 Hartrees.
 IMHF & INEx in M05                  614413                  385587
 NAtoms=   10 NActive=   10 NUniq=   10 SFac= 1.00D+00 NAtFMM=   60 NAOKFM=F Big=F
 ExpMin= 2.53D-02 ExpMax= 8.24D+03 ExpMxC= 2.81D+02 IAcc=3 IRadAn=         5 AccDes= 0.00D+00
 Harris functional with IExCor= 1009 and IRadAn=       5 diagonalized for initial guess.
 HarFok:  IExCor= 1009 AccDes= 0.00D+00 IRadAn=         5 IDoV= 1 UseB2=F ITyADJ=14
 ICtDFT=  3500011 ScaDFX=  1.000000  1.000000  1.000000  1.000000
 FoFCou: FMM=F IPFlag=           0 FMFlag=      100000 FMFlg1=           0
         NFxFlg=           0 DoJE=T BraDBF=F KetDBF=T FulRan=T
         wScrn=  0.000000 ICntrl=     500 IOpCl=  0 I1Cent=   200000004 NGrid=           0
         NMat0=    1 NMatS0=      1 NMatT0=    0 NMatD0=    1 NMtDS0=    0 NMtDT0=    0
 Symmetry not used in FoFCou.
 SCF Done:  E(RM05) =  -40.9122636600     A.U. after    7 cycles
            NFock=  7  Conv=0.81D-08     -V/T= 2.0127

 **********************************************************************

            Population analysis using the SCF density.

 **********************************************************************

 Alpha  occ. eigenvalues --  -10.74530  -0.82768  -0.48752  -0.48752  -0.48752
 Alpha virt. eigenvalues --   -0.00120   0.02291   0.02860   0.02887   0.04417
 Alpha virt. eigenvalues --    0.05505   0.05556   0.06814   0.08167   0.08336
 Alpha virt. eigenvalues --    0.08474   0.10807   0.11016   0.11165   0.12834
 Alpha virt. eigenvalues --    0.14553   0.15511   0.15901   0.17115   0.17242
 Alpha virt. eigenvalues --    0.21729   0.22944   0.22977   0.24140   0.25917
 Alpha virt. eigenvalues --    0.26261   0.26387   0.26846   0.27190   0.27990
 Alpha virt. eigenvalues --    0.28485   0.30314   0.30770   0.32085   0.33511
 Alpha virt. eigenvalues --    0.34244   0.34549   0.34839   0.35110   0.36069
 Alpha virt. eigenvalues --    0.36880   0.37052   0.38530   0.38677   0.40998
 Alpha virt. eigenvalues --    0.43055   0.43496   0.44122   0.45179   0.46130
 Alpha virt. eigenvalues --    0.46817   0.47520   0.48783   0.49025   0.50026
 Alpha virt. eigenvalues --    0.54942   0.55398   0.55766   0.58020   0.63332
 Alpha virt. eigenvalues --    0.63414   0.66078   0.66312   0.66943   0.69398
 Alpha virt. eigenvalues --    0.73311   0.73687   0.75221   0.76564   0.77806
 Alpha virt. eigenvalues --    0.78050   0.81250   0.83205   0.84540   0.85133
 Alpha virt. eigenvalues --    0.87011   0.87561   0.88428   0.90329   0.93068
 Alpha virt. eigenvalues --    0.93532   0.94356   0.96033   0.97199   0.98306
 Alpha virt. eigenvalues --    0.98607   0.98976   1.00749   1.01059   1.01544
 Alpha virt. eigenvalues --    1.02137   1.03582   1.04088   1.04724   1.06070
 Alpha virt. eigenvalues --    1.07153   1.08006   1.10958   1.11720   1.12683
 Alpha virt. eigenvalues --    1.12962   1.14663   1.16780   1.18174   1.19290
 Alpha virt. eigenvalues --    1.19792   1.21189   1.23258   1.24771   1.24960
 Alpha virt. eigenvalues --    1.30562   1.33035   1.34542   1.35465   1.36858
 Alpha virt. eigenvalues --    1.38321   1.38897   1.40390   1.41341   1.44292
 Alpha virt. eigenvalues --    1.45697   1.46867   1.49400   1.50327   1.52181
 Alpha virt. eigenvalues --    1.53586   1.54985   1.59537   1.63189   1.64018
 Alpha virt. eigenvalues --    1.65120   1.69860   1.71106   1.71443   1.72395
 Alpha virt. eigenvalues --    1.73417   1.74292   1.81003   1.82637   1.83833
 Alpha virt. eigenvalues --    1.85678   1.86447   1.88505   1.90058   1.95659
 Alpha virt. eigenvalues --    1.96852   1.98366   1.98939   1.99301   1.99597
 Alpha virt. eigenvalues --    2.06165   2.06334   2.07996   2.09694   2.11613
 Alpha virt. eigenvalues --    2.12488   2.28629   2.29912   2.37487   2.42326
 Alpha virt. eigenvalues --    2.44553   2.45196   2.66256   2.66817   2.68828
 Alpha virt. eigenvalues --    2.79376   2.89665   2.89897   2.92140   3.00878
 Alpha virt. eigenvalues --    3.21261   3.24073   3.24738   3.25266   3.25584
 Alpha virt. eigenvalues --    3.28692   3.29006   3.46779   3.58753   3.59085
 Alpha virt. eigenvalues --    3.62639   3.71576   3.72442   3.72531   3.74708
 Alpha virt. eigenvalues --    3.76428   3.78675   3.81688   3.84025   3.84900
 Alpha virt. eigenvalues --    3.89199   3.96549   4.01001   4.01716   4.07108
 Alpha virt. eigenvalues --    4.08829   4.13094   4.17257   4.18039   4.21396
 Alpha virt. eigenvalues --    4.22091   4.22696   4.32315   4.32932   4.34082
 Alpha virt. eigenvalues --    4.37089   4.38366   4.39445   4.39996   4.42097
 Alpha virt. eigenvalues --    4.47204   4.49159   4.49829   4.51544   4.53772
 Alpha virt. eigenvalues --    4.55253   4.57947   4.59704   4.60456   4.64446
 Alpha virt. eigenvalues --    4.66782   4.76892   4.79181   4.79806   4.80289
 Alpha virt. eigenvalues --    4.84621   4.90069   4.91273   4.98608   5.10949
 Alpha virt. eigenvalues --    5.13606   5.15096   5.15932   5.17618   5.18252
 Alpha virt. eigenvalues --    5.25806   5.26764   5.27125   5.30211   5.32606
 Alpha virt. eigenvalues --    5.33063   5.38931   5.39393   5.46429   5.46682
 Alpha virt. eigenvalues --    5.47820   5.53706   5.59163   5.59388   5.62742
 Alpha virt. eigenvalues --    6.05558   6.05793   6.11355   6.11890   6.13141
 Alpha virt. eigenvalues --    6.15544   6.21108   6.21245   6.79347   6.79684
 Alpha virt. eigenvalues --    6.81457   6.96059   7.62138   7.62520   7.67861
 Alpha virt. eigenvalues --    8.04363   8.05972   8.12031  10.38812  17.05664
 Alpha virt. eigenvalues --   52.78178
          Condensed to atoms (all electrons):
 Mulliken charges:
               1
     1  C   -0.000345
     2  H    0.002734
     3  H   -0.004471
     4  H   -0.000729
     5  H    0.000367
     6  C   -1.976895
     7  H    0.458458
     8  H    0.514035
     9  H    0.507723
    10  H    0.499123
 Sum of Mulliken charges =  -0.00000
 Mulliken charges with hydrogens summed into heavy atoms:
               1
     1  C   -0.002444
     6  C    0.002444
 Electronic spatial extent (au):  <R**2>=            434.5306
 Charge=             -0.0000 electrons
 Dipole moment (field-independent basis, Debye):
    X=             -0.0000    Y=             -0.0000    Z=              0.0000  Tot=              0.0000

 Test job not archived.
 1\1\GINC-CHIMERA-NODE48\SP\RM05\Gen\C2H8\CONNORNM\08-Dec-2018\0\\#T M0
 5/Gen test Massage SCF=(tight,maxcyc=40)\\M05 opt\\0,1\C,0,0.,0.,0.\H,
 0,0.98671828,0.,0.50236739\H,0,-0.5176087,0.95748853,0.20318194\H,0,0.
 1416661,-0.11855577,-1.09172396\H,0,-0.61077568,-0.83893276,0.38617463
 \C,0,0.,0.,3.33838631\H,0,0.01761834,0.00022787,4.44548861\H,0,-1.0322
 1078,-0.19014848,2.98572439\H,0,0.34270651,0.98390815,2.96360242\H,0,0
 .67188592,-0.79398754,2.95872982\\Version=AS64L-G09RevD.01\HF=-40.9122
 637\RMSD=8.075e-09\Dipole=-0.0000011,-0.000003,0.0000121\Quadrupole=-0
 .0003797,-0.0002448,0.0006245,-0.0000449,-0.0000804,-0.0000059\PG=C01 
 [X(C2H8)]\\@


 The number of Unix installations has grown to 10,
  with more expected.
                  -- The Unix Programmer's Manual,
                     2nd Edition, June, 1972.
 Job cpu time:       0 days  0 hours 12 minutes 33.0 seconds.
 File lengths (MBytes):  RWF=     41 Int=      0 D2E=      0 Chk=      4 Scr=      1
 Normal termination of Gaussian 09 at Sat Dec  8 15:27:04 2018.
