 Entering Gaussian System, Link 0=/data/szalewicgrp/connornm/opt/Gaussian/g09-M05-par/g09/g09
 AtFile(1): aug-cc-pVTZ.gbs
 Initial command:
 /data/szalewicgrp/connornm/opt/Gaussian/g09-M05-par/g09/l1.exe "/scratch/local/Gau-39564.inp" -scrdir="/scratch/local/"
 Entering Link 1 = /data/szalewicgrp/connornm/opt/Gaussian/g09-M05-par/g09/l1.exe PID=     39565.
  
 Copyright (c) 1988,1990,1992,1993,1995,1998,2003,2009,2013,
            Gaussian, Inc.  All Rights Reserved.
  
 This is part of the Gaussian(R) 09 program.  It is based on
 the Gaussian(R) 03 system (copyright 2003, Gaussian, Inc.),
 the Gaussian(R) 98 system (copyright 1998, Gaussian, Inc.),
 the Gaussian(R) 94 system (copyright 1995, Gaussian, Inc.),
 the Gaussian 92(TM) system (copyright 1992, Gaussian, Inc.),
 the Gaussian 90(TM) system (copyright 1990, Gaussian, Inc.),
 the Gaussian 88(TM) system (copyright 1988, Gaussian, Inc.),
 the Gaussian 86(TM) system (copyright 1986, Carnegie Mellon
 University), and the Gaussian 82(TM) system (copyright 1983,
 Carnegie Mellon University). Gaussian is a federally registered
 trademark of Gaussian, Inc.
  
 This software contains proprietary and confidential information,
 including trade secrets, belonging to Gaussian, Inc.
  
 This software is provided under written license and may be
 used, copied, transmitted, or stored only in accord with that
 written license.
  
 The following legend is applicable only to US Government
 contracts under FAR:
  
                    RESTRICTED RIGHTS LEGEND
  
 Use, reproduction and disclosure by the US Government is
 subject to restrictions as set forth in subparagraphs (a)
 and (c) of the Commercial Computer Software - Restricted
 Rights clause in FAR 52.227-19.
  
 Gaussian, Inc.
 340 Quinnipiac St., Bldg. 40, Wallingford CT 06492
  
  
 ---------------------------------------------------------------
 Warning -- This program may not be used in any manner that
 competes with the business of Gaussian, Inc. or will provide
 assistance to any competitor of Gaussian, Inc.  The licensee
 of this program is prohibited from giving any competitor of
 Gaussian, Inc. access to this program.  By using this program,
 the user acknowledges that Gaussian, Inc. is engaged in the
 business of creating and licensing software in the field of
 computational chemistry and represents and warrants to the
 licensee that it is not a competitor of Gaussian, Inc. and that
 it will not use this program in any manner prohibited above.
 ---------------------------------------------------------------
  

 Cite this work as:
 Gaussian 09, Revision D.01,
 M. J. Frisch, G. W. Trucks, H. B. Schlegel, G. E. Scuseria, 
 M. A. Robb, J. R. Cheeseman, G. Scalmani, V. Barone, B. Mennucci, 
 G. A. Petersson, H. Nakatsuji, M. Caricato, X. Li, H. P. Hratchian, 
 A. F. Izmaylov, J. Bloino, G. Zheng, J. L. Sonnenberg, M. Hada, 
 M. Ehara, K. Toyota, R. Fukuda, J. Hasegawa, M. Ishida, T. Nakajima, 
 Y. Honda, O. Kitao, H. Nakai, T. Vreven, J. A. Montgomery, Jr., 
 J. E. Peralta, F. Ogliaro, M. Bearpark, J. J. Heyd, E. Brothers, 
 K. N. Kudin, V. N. Staroverov, T. Keith, R. Kobayashi, J. Normand, 
 K. Raghavachari, A. Rendell, J. C. Burant, S. S. Iyengar, J. Tomasi, 
 M. Cossi, N. Rega, J. M. Millam, M. Klene, J. E. Knox, J. B. Cross, 
 V. Bakken, C. Adamo, J. Jaramillo, R. Gomperts, R. E. Stratmann, 
 O. Yazyev, A. J. Austin, R. Cammi, C. Pomelli, J. W. Ochterski, 
 R. L. Martin, K. Morokuma, V. G. Zakrzewski, G. A. Voth, 
 P. Salvador, J. J. Dannenberg, S. Dapprich, A. D. Daniels, 
 O. Farkas, J. B. Foresman, J. V. Ortiz, J. Cioslowski, 
 and D. J. Fox, Gaussian, Inc., Wallingford CT, 2013.
 
 ******************************************
 Gaussian 09:  AS64L-G09RevD.01 24-Apr-2013
                 7-Dec-2018 
 ******************************************
 %Chk=CH400104
 %Mem=2GB
 %NProcShared=16
 Will use up to   16 processors via shared memory.
 ---------------------------------------------
 #T M05/Gen test Massage SCF=(tight,maxcyc=40)
 ---------------------------------------------
 -------
 M05 opt
 -------
 Symbolic Z-matrix:
 Charge =  0 Multiplicity = 1
 6-Bq                  0.        0.        0. 
 1-Bq                  1.10466   0.        0.07552 
 1-Bq                 -0.29724  -0.08264  -1.06339 
 1-Bq                 -0.40859  -0.8599    0.56533 
 1-Bq                 -0.39883   0.94254   0.42254 
 6                     0.        0.        3.04702 
 1                     0.08609   1.10346   3.07776 
 1                    -0.2256   -0.32392   2.01253 
 1                     0.9548   -0.454     3.37599 
 1                    -0.81529  -0.32554   3.72179 
 
                    Distance matrix (angstroms):
                    1          2          3          4          5
     1  C    0.000000
     2  H    1.107243   0.000000
     3  H    1.107243   1.808119   0.000000
     4  H    1.107243   1.808119   1.808119   0.000000
     5  H    1.107243   1.808119   1.808119   1.808119   0.000000
     6  C    3.047021   3.170188   4.121976   2.658036   2.816978
     7  H    3.270730   3.356871   4.324691   3.226736   2.703937
     8  H    2.050882   2.372035   3.086208   1.554075   2.040105
     9  H    3.537668   3.334920   4.627492   3.150144   3.536319
    10  H    3.823926   4.133700   4.819271   3.227101   3.559009
                    6          7          8          9         10
     6  C    0.000000
     7  H    1.107243   0.000000
     8  H    1.107243   1.808119   0.000000
     9  H    1.107243   1.808119   1.808119   0.000000
    10  H    1.107242   1.808119   1.808119   1.808119   0.000000
 Symmetry turned off by external request.
 This structure is nearly, but not quite of a higher symmetry.
 Consider Symm=Loose if the higher symmetry is desired.
 Framework group  C1[X(C2H8)]
 Deg. of freedom    24
 Rotational constants (GHZ):     76.6916051      6.2384952      6.2384952
   276 basis functions,   360 primitive gaussians,   310 cartesian basis functions
     5 alpha electrons        5 beta electrons
       nuclear repulsion energy        13.2261669725 Hartrees.
 IMHF & INEx in M05                  614413                  385587
 NAtoms=   10 NActive=   10 NUniq=   10 SFac= 1.00D+00 NAtFMM=   60 NAOKFM=F Big=F
 ExpMin= 2.53D-02 ExpMax= 8.24D+03 ExpMxC= 2.81D+02 IAcc=3 IRadAn=         5 AccDes= 0.00D+00
 Harris functional with IExCor= 1009 and IRadAn=       5 diagonalized for initial guess.
 HarFok:  IExCor= 1009 AccDes= 0.00D+00 IRadAn=         5 IDoV= 1 UseB2=F ITyADJ=14
 ICtDFT=  3500011 ScaDFX=  1.000000  1.000000  1.000000  1.000000
 FoFCou: FMM=F IPFlag=           0 FMFlag=      100000 FMFlg1=           0
         NFxFlg=           0 DoJE=T BraDBF=F KetDBF=T FulRan=T
         wScrn=  0.000000 ICntrl=     500 IOpCl=  0 I1Cent=   200000004 NGrid=           0
         NMat0=    1 NMatS0=      1 NMatT0=    0 NMatD0=    1 NMtDS0=    0 NMtDT0=    0
 Symmetry not used in FoFCou.
 SCF Done:  E(RM05) =  -40.9123102021     A.U. after    7 cycles
            NFock=  7  Conv=0.61D-08     -V/T= 2.0126

 **********************************************************************

            Population analysis using the SCF density.

 **********************************************************************

 Alpha  occ. eigenvalues --  -10.74527  -0.82769  -0.48755  -0.48752  -0.48751
 Alpha virt. eigenvalues --   -0.00149   0.02395   0.02746   0.02846   0.04902
 Alpha virt. eigenvalues --    0.05101   0.05277   0.07601   0.08119   0.08627
 Alpha virt. eigenvalues --    0.09754   0.10510   0.10934   0.11555   0.12774
 Alpha virt. eigenvalues --    0.14707   0.15144   0.15540   0.17132   0.18272
 Alpha virt. eigenvalues --    0.20336   0.22172   0.22913   0.26082   0.26423
 Alpha virt. eigenvalues --    0.27371   0.27691   0.27804   0.28507   0.28783
 Alpha virt. eigenvalues --    0.29610   0.30211   0.30681   0.31368   0.33332
 Alpha virt. eigenvalues --    0.33660   0.34527   0.35556   0.35970   0.36434
 Alpha virt. eigenvalues --    0.37178   0.38783   0.39041   0.39974   0.41798
 Alpha virt. eigenvalues --    0.42775   0.43489   0.44888   0.46392   0.47850
 Alpha virt. eigenvalues --    0.48187   0.48940   0.50085   0.52680   0.53400
 Alpha virt. eigenvalues --    0.54661   0.56643   0.57206   0.62778   0.63410
 Alpha virt. eigenvalues --    0.64603   0.64808   0.65037   0.69551   0.71307
 Alpha virt. eigenvalues --    0.71572   0.72910   0.74383   0.78760   0.78948
 Alpha virt. eigenvalues --    0.80952   0.82725   0.84203   0.86042   0.87010
 Alpha virt. eigenvalues --    0.87833   0.89775   0.90512   0.92617   0.93301
 Alpha virt. eigenvalues --    0.95032   0.95648   0.96758   0.97610   0.99245
 Alpha virt. eigenvalues --    0.99760   1.00877   1.01314   1.01602   1.01789
 Alpha virt. eigenvalues --    1.03228   1.04432   1.06769   1.07332   1.07798
 Alpha virt. eigenvalues --    1.08613   1.09716   1.10956   1.11532   1.12294
 Alpha virt. eigenvalues --    1.14554   1.16967   1.18213   1.21163   1.21666
 Alpha virt. eigenvalues --    1.21938   1.23650   1.24689   1.25999   1.27735
 Alpha virt. eigenvalues --    1.32933   1.33323   1.34665   1.36420   1.38432
 Alpha virt. eigenvalues --    1.38994   1.41564   1.44642   1.45156   1.47480
 Alpha virt. eigenvalues --    1.48453   1.48912   1.49864   1.51726   1.55268
 Alpha virt. eigenvalues --    1.61305   1.62392   1.62943   1.65804   1.67088
 Alpha virt. eigenvalues --    1.71551   1.72980   1.75457   1.76122   1.77339
 Alpha virt. eigenvalues --    1.78872   1.81011   1.81706   1.85625   1.86364
 Alpha virt. eigenvalues --    1.89161   1.93046   1.94617   1.95945   1.98345
 Alpha virt. eigenvalues --    1.99268   2.01310   2.02884   2.03684   2.05629
 Alpha virt. eigenvalues --    2.09419   2.09626   2.14617   2.19510   2.22420
 Alpha virt. eigenvalues --    2.28042   2.31028   2.34528   2.39003   2.43813
 Alpha virt. eigenvalues --    2.49517   2.59773   2.64011   2.64721   2.80542
 Alpha virt. eigenvalues --    2.81795   2.91784   2.97148   3.00684   3.13253
 Alpha virt. eigenvalues --    3.23379   3.26143   3.27803   3.30543   3.31626
 Alpha virt. eigenvalues --    3.33613   3.38942   3.43059   3.60501   3.61851
 Alpha virt. eigenvalues --    3.69998   3.72248   3.73650   3.74770   3.77021
 Alpha virt. eigenvalues --    3.79794   3.84306   3.85250   3.86368   3.87303
 Alpha virt. eigenvalues --    3.88965   3.93809   3.98259   4.03960   4.05346
 Alpha virt. eigenvalues --    4.12121   4.14958   4.17046   4.20355   4.21643
 Alpha virt. eigenvalues --    4.23401   4.24458   4.27601   4.32567   4.34559
 Alpha virt. eigenvalues --    4.36743   4.38732   4.42428   4.46233   4.46790
 Alpha virt. eigenvalues --    4.47414   4.49645   4.51034   4.53407   4.53781
 Alpha virt. eigenvalues --    4.56963   4.57878   4.61795   4.67074   4.69216
 Alpha virt. eigenvalues --    4.74232   4.80837   4.80925   4.83418   4.87544
 Alpha virt. eigenvalues --    4.91819   4.92786   5.00172   5.06094   5.13220
 Alpha virt. eigenvalues --    5.14544   5.15574   5.16748   5.20365   5.22843
 Alpha virt. eigenvalues --    5.23487   5.30755   5.32530   5.34286   5.34919
 Alpha virt. eigenvalues --    5.37510   5.40165   5.43565   5.48174   5.51229
 Alpha virt. eigenvalues --    5.57598   5.60485   5.63813   5.69857   5.85890
 Alpha virt. eigenvalues --    6.06781   6.07036   6.09282   6.10302   6.12852
 Alpha virt. eigenvalues --    6.16368   6.17015   6.35606   6.75810   6.77750
 Alpha virt. eigenvalues --    6.88868   6.93859   7.57243   7.58509   7.63462
 Alpha virt. eigenvalues --    8.00411   8.04212   8.10493  10.38582  17.59138
 Alpha virt. eigenvalues --   52.72020
          Condensed to atoms (all electrons):
 Mulliken charges:
               1
     1  C   -0.026427
     2  H   -0.008119
     3  H    0.003568
     4  H   -0.034627
     5  H    0.022077
     6  C   -2.041460
     7  H    0.426783
     8  H    0.843759
     9  H    0.407311
    10  H    0.407135
 Sum of Mulliken charges =  -0.00000
 Mulliken charges with hydrogens summed into heavy atoms:
               1
     1  C   -0.043528
     6  C    0.043528
 Electronic spatial extent (au):  <R**2>=            368.0925
 Charge=             -0.0000 electrons
 Dipole moment (field-independent basis, Debye):
    X=             -0.0000    Y=             -0.0000    Z=             -0.0003  Tot=              0.0003

 Test job not archived.
 1\1\GINC-CHIMERA-NODE14\SP\RM05\Gen\C2H8\CONNORNM\07-Dec-2018\0\\#T M0
 5/Gen test Massage SCF=(tight,maxcyc=40)\\M05 opt\\0,1\C,0,0.,0.,0.\H,
 0,1.10466392,0.,0.07552206\H,0,-0.29724186,-0.08263616,-1.06339292\H,0
 ,-0.40859229,-0.85990466,0.56533378\H,0,-0.39882977,0.94254082,0.42253
 708\C,0,0.,0.,3.04702117\H,0,0.08608921,1.10346249,3.07776436\H,0,-0.2
 2560246,-0.32392276,2.01253408\H,0,0.9548013,-0.45400161,3.37599378\H,
 0,-0.81528805,-0.32553812,3.72179245\\Version=AS64L-G09RevD.01\HF=-40.
 9123102\RMSD=6.095e-09\Dipole=-0.0000141,-0.0000189,-0.0001204\Quadrup
 ole=0.0009356,0.000191,-0.0011266,0.0003962,0.0001352,-0.0002255\PG=C0
 1 [X(C2H8)]\\@


 NEVER TEACH A PIG TO SING.
 IT WASTES YOUR TIME AND ANNOYS THE PIG.
     -- SEEN ON A GREETING CARD
 Job cpu time:       0 days  0 hours 12 minutes 54.6 seconds.
 File lengths (MBytes):  RWF=     41 Int=      0 D2E=      0 Chk=      4 Scr=      1
 Normal termination of Gaussian 09 at Fri Dec  7 21:12:49 2018.
