 Entering Gaussian System, Link 0=/data/szalewicgrp/connornm/opt/Gaussian/g09-M05-par/g09/g09
 AtFile(1): aug-cc-pVTZ.gbs
 Initial command:
 /data/szalewicgrp/connornm/opt/Gaussian/g09-M05-par/g09/l1.exe "/scratch/local/Gau-42115.inp" -scrdir="/scratch/local/"
 Entering Link 1 = /data/szalewicgrp/connornm/opt/Gaussian/g09-M05-par/g09/l1.exe PID=     42116.
  
 Copyright (c) 1988,1990,1992,1993,1995,1998,2003,2009,2013,
            Gaussian, Inc.  All Rights Reserved.
  
 This is part of the Gaussian(R) 09 program.  It is based on
 the Gaussian(R) 03 system (copyright 2003, Gaussian, Inc.),
 the Gaussian(R) 98 system (copyright 1998, Gaussian, Inc.),
 the Gaussian(R) 94 system (copyright 1995, Gaussian, Inc.),
 the Gaussian 92(TM) system (copyright 1992, Gaussian, Inc.),
 the Gaussian 90(TM) system (copyright 1990, Gaussian, Inc.),
 the Gaussian 88(TM) system (copyright 1988, Gaussian, Inc.),
 the Gaussian 86(TM) system (copyright 1986, Carnegie Mellon
 University), and the Gaussian 82(TM) system (copyright 1983,
 Carnegie Mellon University). Gaussian is a federally registered
 trademark of Gaussian, Inc.
  
 This software contains proprietary and confidential information,
 including trade secrets, belonging to Gaussian, Inc.
  
 This software is provided under written license and may be
 used, copied, transmitted, or stored only in accord with that
 written license.
  
 The following legend is applicable only to US Government
 contracts under FAR:
  
                    RESTRICTED RIGHTS LEGEND
  
 Use, reproduction and disclosure by the US Government is
 subject to restrictions as set forth in subparagraphs (a)
 and (c) of the Commercial Computer Software - Restricted
 Rights clause in FAR 52.227-19.
  
 Gaussian, Inc.
 340 Quinnipiac St., Bldg. 40, Wallingford CT 06492
  
  
 ---------------------------------------------------------------
 Warning -- This program may not be used in any manner that
 competes with the business of Gaussian, Inc. or will provide
 assistance to any competitor of Gaussian, Inc.  The licensee
 of this program is prohibited from giving any competitor of
 Gaussian, Inc. access to this program.  By using this program,
 the user acknowledges that Gaussian, Inc. is engaged in the
 business of creating and licensing software in the field of
 computational chemistry and represents and warrants to the
 licensee that it is not a competitor of Gaussian, Inc. and that
 it will not use this program in any manner prohibited above.
 ---------------------------------------------------------------
  

 Cite this work as:
 Gaussian 09, Revision D.01,
 M. J. Frisch, G. W. Trucks, H. B. Schlegel, G. E. Scuseria, 
 M. A. Robb, J. R. Cheeseman, G. Scalmani, V. Barone, B. Mennucci, 
 G. A. Petersson, H. Nakatsuji, M. Caricato, X. Li, H. P. Hratchian, 
 A. F. Izmaylov, J. Bloino, G. Zheng, J. L. Sonnenberg, M. Hada, 
 M. Ehara, K. Toyota, R. Fukuda, J. Hasegawa, M. Ishida, T. Nakajima, 
 Y. Honda, O. Kitao, H. Nakai, T. Vreven, J. A. Montgomery, Jr., 
 J. E. Peralta, F. Ogliaro, M. Bearpark, J. J. Heyd, E. Brothers, 
 K. N. Kudin, V. N. Staroverov, T. Keith, R. Kobayashi, J. Normand, 
 K. Raghavachari, A. Rendell, J. C. Burant, S. S. Iyengar, J. Tomasi, 
 M. Cossi, N. Rega, J. M. Millam, M. Klene, J. E. Knox, J. B. Cross, 
 V. Bakken, C. Adamo, J. Jaramillo, R. Gomperts, R. E. Stratmann, 
 O. Yazyev, A. J. Austin, R. Cammi, C. Pomelli, J. W. Ochterski, 
 R. L. Martin, K. Morokuma, V. G. Zakrzewski, G. A. Voth, 
 P. Salvador, J. J. Dannenberg, S. Dapprich, A. D. Daniels, 
 O. Farkas, J. B. Foresman, J. V. Ortiz, J. Cioslowski, 
 and D. J. Fox, Gaussian, Inc., Wallingford CT, 2013.
 
 ******************************************
 Gaussian 09:  AS64L-G09RevD.01 24-Apr-2013
                 7-Dec-2018 
 ******************************************
 %Chk=CH400147
 %Mem=2GB
 %NProcShared=16
 Will use up to   16 processors via shared memory.
 ---------------------------------------------
 #T M05/Gen test Massage SCF=(tight,maxcyc=40)
 ---------------------------------------------
 -------
 M05 opt
 -------
 Symbolic Z-matrix:
 Charge =  0 Multiplicity = 1
 6-Bq                  0.        0.        0. 
 1-Bq                  0.95811   0.        0.55498 
 1-Bq                 -0.65434  -0.80196   0.3933 
 1-Bq                 -0.5       0.97975   0.12683 
 1-Bq                  0.19623  -0.17779  -1.07511 
 6                     0.        0.        3.34604 
 1                     0.20695  -1.0241    2.97948 
 1                    -0.40997  -0.05149   4.3733 
 1                     0.9391    0.58654   3.35241 
 1                    -0.73609   0.48906   2.67897 
 
                    Distance matrix (angstroms):
                    1          2          3          4          5
     1  C    0.000000
     2  H    1.107243   0.000000
     3  H    1.107243   1.808119   0.000000
     4  H    1.107243   1.808119   1.808119   0.000000
     5  H    1.107243   1.808119   1.808119   1.808119   0.000000
     6  C    3.346039   2.950929   3.128895   3.401938   4.429077
     7  H    3.157360   2.737009   2.734871   3.557075   4.141993
     8  H    4.392772   4.056332   4.057499   4.370812   5.483486
     9  H    3.530527   2.858323   3.636395   3.553869   4.554017
    10  H    2.820970   2.760580   2.626346   2.609578   3.925179
                    6          7          8          9         10
     6  C    0.000000
     7  H    1.107243   0.000000
     8  H    1.107242   1.808119   0.000000
     9  H    1.107242   1.808119   1.808119   0.000000
    10  H    1.107243   1.808119   1.808119   1.808119   0.000000
 Symmetry turned off by external request.
 This structure is nearly, but not quite of a higher symmetry.
 Consider Symm=Loose if the higher symmetry is desired.
 Framework group  C1[X(C2H8)]
 Deg. of freedom    24
 Rotational constants (GHZ):     76.6916057      5.2461773      5.2461773
   276 basis functions,   360 primitive gaussians,   310 cartesian basis functions
     5 alpha electrons        5 beta electrons
       nuclear repulsion energy        13.2261670082 Hartrees.
 IMHF & INEx in M05                  614413                  385587
 NAtoms=   10 NActive=   10 NUniq=   10 SFac= 1.00D+00 NAtFMM=   60 NAOKFM=F Big=F
 ExpMin= 2.53D-02 ExpMax= 8.24D+03 ExpMxC= 2.81D+02 IAcc=3 IRadAn=         5 AccDes= 0.00D+00
 Harris functional with IExCor= 1009 and IRadAn=       5 diagonalized for initial guess.
 HarFok:  IExCor= 1009 AccDes= 0.00D+00 IRadAn=         5 IDoV= 1 UseB2=F ITyADJ=14
 ICtDFT=  3500011 ScaDFX=  1.000000  1.000000  1.000000  1.000000
 FoFCou: FMM=F IPFlag=           0 FMFlag=      100000 FMFlg1=           0
         NFxFlg=           0 DoJE=T BraDBF=F KetDBF=T FulRan=T
         wScrn=  0.000000 ICntrl=     500 IOpCl=  0 I1Cent=   200000004 NGrid=           0
         NMat0=    1 NMatS0=      1 NMatT0=    0 NMatD0=    1 NMtDS0=    0 NMtDT0=    0
 Symmetry not used in FoFCou.
 SCF Done:  E(RM05) =  -40.9122573789     A.U. after    7 cycles
            NFock=  7  Conv=0.62D-08     -V/T= 2.0127

 **********************************************************************

            Population analysis using the SCF density.

 **********************************************************************

 Alpha  occ. eigenvalues --  -10.74530  -0.82768  -0.48752  -0.48752  -0.48751
 Alpha virt. eigenvalues --   -0.00117   0.02331   0.02826   0.02875   0.04467
 Alpha virt. eigenvalues --    0.05352   0.05578   0.06906   0.08072   0.08498
 Alpha virt. eigenvalues --    0.09207   0.10804   0.10919   0.11273   0.12697
 Alpha virt. eigenvalues --    0.13649   0.15553   0.16274   0.16996   0.17170
 Alpha virt. eigenvalues --    0.21522   0.22186   0.23021   0.24427   0.26436
 Alpha virt. eigenvalues --    0.26503   0.26866   0.26991   0.27751   0.28533
 Alpha virt. eigenvalues --    0.28962   0.30052   0.30562   0.31479   0.32888
 Alpha virt. eigenvalues --    0.33219   0.34808   0.34983   0.35611   0.36152
 Alpha virt. eigenvalues --    0.36813   0.37055   0.38902   0.39059   0.42138
 Alpha virt. eigenvalues --    0.42666   0.43402   0.44553   0.45170   0.45621
 Alpha virt. eigenvalues --    0.46795   0.47446   0.49165   0.49759   0.52054
 Alpha virt. eigenvalues --    0.55167   0.55684   0.57015   0.59012   0.63228
 Alpha virt. eigenvalues --    0.63762   0.64679   0.66322   0.66829   0.67928
 Alpha virt. eigenvalues --    0.72477   0.73755   0.74910   0.77140   0.77648
 Alpha virt. eigenvalues --    0.79113   0.80676   0.82507   0.84619   0.85186
 Alpha virt. eigenvalues --    0.86529   0.87963   0.89911   0.90770   0.92267
 Alpha virt. eigenvalues --    0.93052   0.94908   0.95991   0.97200   0.98401
 Alpha virt. eigenvalues --    0.98721   0.99301   1.00377   1.00890   1.01943
 Alpha virt. eigenvalues --    1.02443   1.03721   1.05176   1.05469   1.06063
 Alpha virt. eigenvalues --    1.07213   1.08471   1.10263   1.10735   1.11866
 Alpha virt. eigenvalues --    1.12636   1.13832   1.14519   1.16729   1.18633
 Alpha virt. eigenvalues --    1.22710   1.23915   1.24040   1.25421   1.27504
 Alpha virt. eigenvalues --    1.30147   1.31582   1.32947   1.34086   1.36301
 Alpha virt. eigenvalues --    1.37055   1.38259   1.41276   1.42202   1.44668
 Alpha virt. eigenvalues --    1.44755   1.46292   1.48400   1.48999   1.53420
 Alpha virt. eigenvalues --    1.58246   1.58857   1.60949   1.62275   1.63774
 Alpha virt. eigenvalues --    1.65641   1.67960   1.70733   1.71316   1.72603
 Alpha virt. eigenvalues --    1.74581   1.76788   1.77976   1.83239   1.85152
 Alpha virt. eigenvalues --    1.85539   1.86229   1.87101   1.92104   1.95167
 Alpha virt. eigenvalues --    1.95903   1.98033   1.98934   1.99230   2.02867
 Alpha virt. eigenvalues --    2.05881   2.06756   2.08446   2.09994   2.13239
 Alpha virt. eigenvalues --    2.15090   2.28595   2.30060   2.36298   2.41500
 Alpha virt. eigenvalues --    2.44519   2.46540   2.65980   2.67051   2.69825
 Alpha virt. eigenvalues --    2.77718   2.87952   2.91603   2.94026   2.97546
 Alpha virt. eigenvalues --    3.21657   3.23307   3.26005   3.27938   3.28556
 Alpha virt. eigenvalues --    3.29691   3.30585   3.41396   3.58376   3.60389
 Alpha virt. eigenvalues --    3.60771   3.70549   3.72278   3.73838   3.75689
 Alpha virt. eigenvalues --    3.76027   3.77355   3.83955   3.85265   3.86282
 Alpha virt. eigenvalues --    3.89701   3.96331   4.01721   4.02593   4.05097
 Alpha virt. eigenvalues --    4.06827   4.11540   4.17825   4.19617   4.20911
 Alpha virt. eigenvalues --    4.22127   4.22923   4.32975   4.33741   4.35222
 Alpha virt. eigenvalues --    4.36557   4.37791   4.38516   4.41223   4.44076
 Alpha virt. eigenvalues --    4.46525   4.49593   4.50148   4.51828   4.52409
 Alpha virt. eigenvalues --    4.55585   4.56851   4.57971   4.59935   4.65658
 Alpha virt. eigenvalues --    4.71323   4.75039   4.79320   4.79799   4.82214
 Alpha virt. eigenvalues --    4.85258   4.89475   4.91588   4.97567   5.10637
 Alpha virt. eigenvalues --    5.13713   5.14909   5.16147   5.16911   5.21047
 Alpha virt. eigenvalues --    5.25384   5.26255   5.26516   5.29542   5.32929
 Alpha virt. eigenvalues --    5.33395   5.38303   5.39914   5.45689   5.47234
 Alpha virt. eigenvalues --    5.49662   5.52559   5.59303   5.60129   5.62263
 Alpha virt. eigenvalues --    6.06057   6.08260   6.10251   6.11028   6.12358
 Alpha virt. eigenvalues --    6.14571   6.20709   6.20854   6.78320   6.79511
 Alpha virt. eigenvalues --    6.80680   6.95491   7.61195   7.62332   7.66836
 Alpha virt. eigenvalues --    8.03498   8.05838   8.10866  10.40002  16.96449
 Alpha virt. eigenvalues --   52.75761
          Condensed to atoms (all electrons):
 Mulliken charges:
               1
     1  C    0.004524
     2  H   -0.004310
     3  H    0.005839
     4  H   -0.002954
     5  H    0.001164
     6  C   -1.935980
     7  H    0.477118
     8  H    0.417362
     9  H    0.504644
    10  H    0.532594
 Sum of Mulliken charges =  -0.00000
 Mulliken charges with hydrogens summed into heavy atoms:
               1
     1  C    0.004262
     6  C   -0.004262
 Electronic spatial extent (au):  <R**2>=            436.3576
 Charge=             -0.0000 electrons
 Dipole moment (field-independent basis, Debye):
    X=              0.0000    Y=              0.0001    Z=             -0.0000  Tot=              0.0001

 Test job not archived.
 1\1\GINC-CHIMERA-NODE14\SP\RM05\Gen\C2H8\CONNORNM\07-Dec-2018\0\\#T M0
 5/Gen test Massage SCF=(tight,maxcyc=40)\\M05 opt\\0,1\C,0,0.,0.,0.\H,
 0,0.95811295,0.,0.55498246\H,0,-0.65434417,-0.80195769,0.39329827\H,0,
 -0.49999607,0.97974639,0.12683415\H,0,0.19622729,-0.1777887,-1.0751148
 7\C,0,0.,0.,3.34603939\H,0,0.20695399,-1.02410448,2.97947968\H,0,-0.40
 99727,-0.05149328,4.37329631\H,0,0.93910474,0.58653866,3.35241376\H,0,
 -0.73608603,0.48905909,2.67896779\\Version=AS64L-G09RevD.01\HF=-40.912
 2574\RMSD=6.188e-09\Dipole=0.000007,0.0000403,-0.0000024\Quadrupole=-0
 .0000691,-0.0003934,0.0004626,-0.0007618,-0.0001069,0.000282\PG=C01 [X
 (C2H8)]\\@


 FROM WHENCE IT HAPPENS, THAT THEY WHICH TRUST TO BOOKS, DO AS THEY THAT CAST UP MANY LITTLE SUMMS INTO GREATER,
 WITHOUT CONSIDERING WETHER THOSE LITTLE SUMMES WERE RIGHTLY CAST UP OR NOT...
 AND AT LAST FINDING THE ERROUR VISIBLE, AND NOT MISTRUSTING THEIR FIRST GROUNDS,
 KNOW NOT WHICH WAY TO CLEERE THEMSELVES...
 BUT SPEND TIME IN FLUTTERING OVER THEIR BOOKES....
 AS BIRDS THAT ENTERING BY THE CHIMNEY, AND FINDING THEMSELVES INCLOSED IN A CHAMBER,
 FLUTTER AT THE FALSE LIGHT OF A GLASSE WINDOW,
 FOR WANT OF WIT TO CONSIDER WHICH WAY THEY CAME IN....
           LEVIATHAN
 Job cpu time:       0 days  0 hours 12 minutes 32.2 seconds.
 File lengths (MBytes):  RWF=     41 Int=      0 D2E=      0 Chk=      4 Scr=      1
 Normal termination of Gaussian 09 at Fri Dec  7 22:11:49 2018.
