 Entering Gaussian System, Link 0=/data/szalewicgrp/connornm/opt/Gaussian/g09-M05-par/g09/g09
 AtFile(1): aug-cc-pVTZ.gbs
 Initial command:
 /data/szalewicgrp/connornm/opt/Gaussian/g09-M05-par/g09/l1.exe "/scratch/local/Gau-46617.inp" -scrdir="/scratch/local/"
 Entering Link 1 = /data/szalewicgrp/connornm/opt/Gaussian/g09-M05-par/g09/l1.exe PID=     46618.
  
 Copyright (c) 1988,1990,1992,1993,1995,1998,2003,2009,2013,
            Gaussian, Inc.  All Rights Reserved.
  
 This is part of the Gaussian(R) 09 program.  It is based on
 the Gaussian(R) 03 system (copyright 2003, Gaussian, Inc.),
 the Gaussian(R) 98 system (copyright 1998, Gaussian, Inc.),
 the Gaussian(R) 94 system (copyright 1995, Gaussian, Inc.),
 the Gaussian 92(TM) system (copyright 1992, Gaussian, Inc.),
 the Gaussian 90(TM) system (copyright 1990, Gaussian, Inc.),
 the Gaussian 88(TM) system (copyright 1988, Gaussian, Inc.),
 the Gaussian 86(TM) system (copyright 1986, Carnegie Mellon
 University), and the Gaussian 82(TM) system (copyright 1983,
 Carnegie Mellon University). Gaussian is a federally registered
 trademark of Gaussian, Inc.
  
 This software contains proprietary and confidential information,
 including trade secrets, belonging to Gaussian, Inc.
  
 This software is provided under written license and may be
 used, copied, transmitted, or stored only in accord with that
 written license.
  
 The following legend is applicable only to US Government
 contracts under FAR:
  
                    RESTRICTED RIGHTS LEGEND
  
 Use, reproduction and disclosure by the US Government is
 subject to restrictions as set forth in subparagraphs (a)
 and (c) of the Commercial Computer Software - Restricted
 Rights clause in FAR 52.227-19.
  
 Gaussian, Inc.
 340 Quinnipiac St., Bldg. 40, Wallingford CT 06492
  
  
 ---------------------------------------------------------------
 Warning -- This program may not be used in any manner that
 competes with the business of Gaussian, Inc. or will provide
 assistance to any competitor of Gaussian, Inc.  The licensee
 of this program is prohibited from giving any competitor of
 Gaussian, Inc. access to this program.  By using this program,
 the user acknowledges that Gaussian, Inc. is engaged in the
 business of creating and licensing software in the field of
 computational chemistry and represents and warrants to the
 licensee that it is not a competitor of Gaussian, Inc. and that
 it will not use this program in any manner prohibited above.
 ---------------------------------------------------------------
  

 Cite this work as:
 Gaussian 09, Revision D.01,
 M. J. Frisch, G. W. Trucks, H. B. Schlegel, G. E. Scuseria, 
 M. A. Robb, J. R. Cheeseman, G. Scalmani, V. Barone, B. Mennucci, 
 G. A. Petersson, H. Nakatsuji, M. Caricato, X. Li, H. P. Hratchian, 
 A. F. Izmaylov, J. Bloino, G. Zheng, J. L. Sonnenberg, M. Hada, 
 M. Ehara, K. Toyota, R. Fukuda, J. Hasegawa, M. Ishida, T. Nakajima, 
 Y. Honda, O. Kitao, H. Nakai, T. Vreven, J. A. Montgomery, Jr., 
 J. E. Peralta, F. Ogliaro, M. Bearpark, J. J. Heyd, E. Brothers, 
 K. N. Kudin, V. N. Staroverov, T. Keith, R. Kobayashi, J. Normand, 
 K. Raghavachari, A. Rendell, J. C. Burant, S. S. Iyengar, J. Tomasi, 
 M. Cossi, N. Rega, J. M. Millam, M. Klene, J. E. Knox, J. B. Cross, 
 V. Bakken, C. Adamo, J. Jaramillo, R. Gomperts, R. E. Stratmann, 
 O. Yazyev, A. J. Austin, R. Cammi, C. Pomelli, J. W. Ochterski, 
 R. L. Martin, K. Morokuma, V. G. Zakrzewski, G. A. Voth, 
 P. Salvador, J. J. Dannenberg, S. Dapprich, A. D. Daniels, 
 O. Farkas, J. B. Foresman, J. V. Ortiz, J. Cioslowski, 
 and D. J. Fox, Gaussian, Inc., Wallingford CT, 2013.
 
 ******************************************
 Gaussian 09:  AS64L-G09RevD.01 24-Apr-2013
                 7-Dec-2018 
 ******************************************
 %Chk=CH400114
 %Mem=2GB
 %NProcShared=16
 Will use up to   16 processors via shared memory.
 ---------------------------------------------
 #T M05/Gen test Massage SCF=(tight,maxcyc=40)
 ---------------------------------------------
 -------
 M05 opt
 -------
 Symbolic Z-matrix:
 Charge =  0 Multiplicity = 1
 6-Bq                  0.        0.        0. 
 1-Bq                  1.10669   0.        0.0351 
 1-Bq                 -0.33855  -0.41605  -0.96865 
 1-Bq                 -0.39549  -0.62113   0.8269 
 1-Bq                 -0.37265   1.03718   0.10665 
 6                     0.        0.        3.78749 
 1                     1.03853   0.20283   3.46146 
 1                    -0.32045   0.77979   4.50528 
 1                    -0.67176   0.01002   2.90737 
 1                    -0.04631  -0.99264   4.27587 
 
                    Distance matrix (angstroms):
                    1          2          3          4          5
     1  C    0.000000
     2  H    1.107243   0.000000
     3  H    1.107242   1.808119   0.000000
     4  H    1.107242   1.808119   1.808119   0.000000
     5  H    1.107242   1.808119   1.808119   1.808119   0.000000
     6  C    3.787495   3.912189   4.786292   3.050792   3.842299
     7  H    3.619581   3.433032   4.680295   3.110661   3.733943
     8  H    4.583484   4.756819   5.603058   3.936840   4.406468
     9  H    2.983986   3.378302   3.913576   2.191581   2.998098
    10  H    4.389822   4.505428   5.284204   3.486449   4.648558
                    6          7          8          9         10
     6  C    0.000000
     7  H    1.107243   0.000000
     8  H    1.107243   1.808119   0.000000
     9  H    1.107242   1.808119   1.808119   0.000000
    10  H    1.107242   1.808119   1.808119   1.808119   0.000000
 Symmetry turned off by external request.
 This structure is nearly, but not quite of a higher symmetry.
 Consider Symm=Loose if the higher symmetry is desired.
 Framework group  C1[X(C2H8)]
 Deg. of freedom    24
 Rotational constants (GHZ):     76.6916057      4.1569257      4.1569257
   276 basis functions,   360 primitive gaussians,   310 cartesian basis functions
     5 alpha electrons        5 beta electrons
       nuclear repulsion energy        13.2261670150 Hartrees.
 IMHF & INEx in M05                  614413                  385587
 NAtoms=   10 NActive=   10 NUniq=   10 SFac= 1.00D+00 NAtFMM=   60 NAOKFM=F Big=F
 ExpMin= 2.53D-02 ExpMax= 8.24D+03 ExpMxC= 2.81D+02 IAcc=3 IRadAn=         5 AccDes= 0.00D+00
 Harris functional with IExCor= 1009 and IRadAn=       5 diagonalized for initial guess.
 HarFok:  IExCor= 1009 AccDes= 0.00D+00 IRadAn=         5 IDoV= 1 UseB2=F ITyADJ=14
 ICtDFT=  3500011 ScaDFX=  1.000000  1.000000  1.000000  1.000000
 FoFCou: FMM=F IPFlag=           0 FMFlag=      100000 FMFlg1=           0
         NFxFlg=           0 DoJE=T BraDBF=F KetDBF=T FulRan=T
         wScrn=  0.000000 ICntrl=     500 IOpCl=  0 I1Cent=   200000004 NGrid=           0
         NMat0=    1 NMatS0=      1 NMatT0=    0 NMatD0=    1 NMtDS0=    0 NMtDT0=    0
 Symmetry not used in FoFCou.
 SCF Done:  E(RM05) =  -40.9122382397     A.U. after    7 cycles
            NFock=  7  Conv=0.42D-08     -V/T= 2.0127

 **********************************************************************

            Population analysis using the SCF density.

 **********************************************************************

 Alpha  occ. eigenvalues --  -10.74529  -0.82768  -0.48752  -0.48751  -0.48751
 Alpha virt. eigenvalues --   -0.00116   0.02367   0.02723   0.02878   0.04641
 Alpha virt. eigenvalues --    0.05013   0.05475   0.06708   0.08175   0.09130
 Alpha virt. eigenvalues --    0.09971   0.10634   0.10905   0.11579   0.12264
 Alpha virt. eigenvalues --    0.12750   0.15150   0.15763   0.16281   0.17062
 Alpha virt. eigenvalues --    0.21747   0.22038   0.22263   0.25228   0.25530
 Alpha virt. eigenvalues --    0.26111   0.27103   0.27946   0.28995   0.29098
 Alpha virt. eigenvalues --    0.29266   0.29742   0.30394   0.30886   0.31152
 Alpha virt. eigenvalues --    0.32839   0.33136   0.34831   0.34908   0.35474
 Alpha virt. eigenvalues --    0.36129   0.36766   0.38257   0.39078   0.40808
 Alpha virt. eigenvalues --    0.41696   0.41995   0.44079   0.45126   0.46225
 Alpha virt. eigenvalues --    0.47029   0.48192   0.49246   0.49479   0.52111
 Alpha virt. eigenvalues --    0.54074   0.55776   0.56677   0.58737   0.61846
 Alpha virt. eigenvalues --    0.64144   0.64219   0.65449   0.66903   0.68625
 Alpha virt. eigenvalues --    0.70369   0.72925   0.73621   0.77285   0.78795
 Alpha virt. eigenvalues --    0.79266   0.80746   0.83661   0.86108   0.86509
 Alpha virt. eigenvalues --    0.87749   0.88892   0.90045   0.91389   0.92899
 Alpha virt. eigenvalues --    0.93740   0.94815   0.95473   0.96755   0.97463
 Alpha virt. eigenvalues --    0.98344   0.99059   1.00243   1.01602   1.02115
 Alpha virt. eigenvalues --    1.02465   1.03004   1.04486   1.05105   1.05552
 Alpha virt. eigenvalues --    1.05978   1.07823   1.08832   1.09864   1.10660
 Alpha virt. eigenvalues --    1.11647   1.13269   1.13958   1.15644   1.17923
 Alpha virt. eigenvalues --    1.20044   1.20801   1.21603   1.24620   1.25078
 Alpha virt. eigenvalues --    1.26278   1.29316   1.30371   1.32005   1.35707
 Alpha virt. eigenvalues --    1.36832   1.37325   1.40218   1.40391   1.42382
 Alpha virt. eigenvalues --    1.44752   1.44970   1.46021   1.47943   1.48771
 Alpha virt. eigenvalues --    1.50477   1.52901   1.56910   1.57641   1.60897
 Alpha virt. eigenvalues --    1.64803   1.66185   1.68282   1.69869   1.71235
 Alpha virt. eigenvalues --    1.72050   1.76782   1.78650   1.79980   1.82944
 Alpha virt. eigenvalues --    1.84282   1.86305   1.87990   1.91868   1.94654
 Alpha virt. eigenvalues --    1.96297   1.98885   2.00087   2.00697   2.01522
 Alpha virt. eigenvalues --    2.03768   2.05431   2.07280   2.11948   2.14361
 Alpha virt. eigenvalues --    2.19065   2.27361   2.29029   2.37499   2.42128
 Alpha virt. eigenvalues --    2.44560   2.52225   2.66217   2.69104   2.69461
 Alpha virt. eigenvalues --    2.69917   2.82496   2.90783   2.92649   2.94327
 Alpha virt. eigenvalues --    3.21163   3.22775   3.25134   3.25676   3.27531
 Alpha virt. eigenvalues --    3.28482   3.29914   3.38475   3.58081   3.59516
 Alpha virt. eigenvalues --    3.61655   3.66258   3.71286   3.72173   3.73974
 Alpha virt. eigenvalues --    3.76009   3.77016   3.78155   3.82662   3.83934
 Alpha virt. eigenvalues --    3.86289   3.97453   4.01033   4.02240   4.02857
 Alpha virt. eigenvalues --    4.03810   4.12299   4.17794   4.19119   4.19486
 Alpha virt. eigenvalues --    4.21122   4.24089   4.32797   4.34087   4.35316
 Alpha virt. eigenvalues --    4.36174   4.39130   4.39313   4.41346   4.42917
 Alpha virt. eigenvalues --    4.45543   4.47911   4.49426   4.50394   4.51158
 Alpha virt. eigenvalues --    4.52523   4.54999   4.56753   4.58370   4.61090
 Alpha virt. eigenvalues --    4.67446   4.75537   4.77905   4.79035   4.81517
 Alpha virt. eigenvalues --    4.82015   4.90959   4.91838   4.92574   5.12125
 Alpha virt. eigenvalues --    5.13036   5.14725   5.15593   5.16636   5.20948
 Alpha virt. eigenvalues --    5.23966   5.27324   5.28438   5.30074   5.32583
 Alpha virt. eigenvalues --    5.33620   5.39396   5.41748   5.45938   5.46915
 Alpha virt. eigenvalues --    5.50602   5.51543   5.58343   5.59481   5.66155
 Alpha virt. eigenvalues --    6.05597   6.06935   6.07565   6.12045   6.13035
 Alpha virt. eigenvalues --    6.14340   6.21427   6.22091   6.78603   6.79568
 Alpha virt. eigenvalues --    6.83136   6.94913   7.61886   7.63752   7.66603
 Alpha virt. eigenvalues --    8.01258   8.06152   8.08678  10.27097  16.73024
 Alpha virt. eigenvalues --   52.32096
          Condensed to atoms (all electrons):
 Mulliken charges:
               1
     1  C    0.011254
     2  H    0.001002
     3  H    0.000722
     4  H   -0.001246
     5  H    0.001356
     6  C   -1.867381
     7  H    0.436584
     8  H    0.415118
     9  H    0.551109
    10  H    0.451482
 Sum of Mulliken charges =   0.00000
 Mulliken charges with hydrogens summed into heavy atoms:
               1
     1  C    0.013088
     6  C   -0.013088
 Electronic spatial extent (au):  <R**2>=            548.8159
 Charge=              0.0000 electrons
 Dipole moment (field-independent basis, Debye):
    X=             -0.0001    Y=              0.0000    Z=             -0.0000  Tot=              0.0002

 Test job not archived.
 1\1\GINC-CHIMERA-NODE15\SP\RM05\Gen\C2H8\CONNORNM\07-Dec-2018\0\\#T M0
 5/Gen test Massage SCF=(tight,maxcyc=40)\\M05 opt\\0,1\C,0,0.,0.,0.\H,
 0,1.10668604,0.,0.03509941\H,0,-0.33854502,-0.41604855,-0.9686469\H,0,
 -0.39549223,-0.62113293,0.82690128\H,0,-0.37264878,1.03718148,0.106646
 21\C,0,0.,0.,3.78749465\H,0,1.0385309,0.20282684,3.46145662\H,0,-0.320
 45204,0.77979396,4.50528141\H,0,-0.67176405,0.01001722,2.90737042\H,0,
 -0.04631481,-0.99263802,4.27587017\\Version=AS64L-G09RevD.01\HF=-40.91
 22382\RMSD=4.201e-09\Dipole=-0.0000585,0.0000012,-0.0000112\Quadrupole
 =0.0005068,-0.000101,-0.0004058,-0.0003833,-0.0003977,0.0002014\PG=C01
  [X(C2H8)]\\@


 "TIGER, TIGER BURNING BRIGHT
 IN THE FOREST OF THE NIGHT.
 WHAT IMMORTAL HAND OR EYE
 CAN FRAME THY FEARFUL SYMMETRYE?"
                     - WILLIAM BLAKE
 Job cpu time:       0 days  0 hours 11 minutes 42.7 seconds.
 File lengths (MBytes):  RWF=     41 Int=      0 D2E=      0 Chk=      4 Scr=      1
 Normal termination of Gaussian 09 at Fri Dec  7 14:02:11 2018.
