 Entering Gaussian System, Link 0=/data/szalewicgrp/connornm/opt/Gaussian/g09-M05-par/g09/g09
 AtFile(1): aug-cc-pVTZ.gbs
 Initial command:
 /data/szalewicgrp/connornm/opt/Gaussian/g09-M05-par/g09/l1.exe "/scratch/local/Gau-9795.inp" -scrdir="/scratch/local/"
 Entering Link 1 = /data/szalewicgrp/connornm/opt/Gaussian/g09-M05-par/g09/l1.exe PID=      9796.
  
 Copyright (c) 1988,1990,1992,1993,1995,1998,2003,2009,2013,
            Gaussian, Inc.  All Rights Reserved.
  
 This is part of the Gaussian(R) 09 program.  It is based on
 the Gaussian(R) 03 system (copyright 2003, Gaussian, Inc.),
 the Gaussian(R) 98 system (copyright 1998, Gaussian, Inc.),
 the Gaussian(R) 94 system (copyright 1995, Gaussian, Inc.),
 the Gaussian 92(TM) system (copyright 1992, Gaussian, Inc.),
 the Gaussian 90(TM) system (copyright 1990, Gaussian, Inc.),
 the Gaussian 88(TM) system (copyright 1988, Gaussian, Inc.),
 the Gaussian 86(TM) system (copyright 1986, Carnegie Mellon
 University), and the Gaussian 82(TM) system (copyright 1983,
 Carnegie Mellon University). Gaussian is a federally registered
 trademark of Gaussian, Inc.
  
 This software contains proprietary and confidential information,
 including trade secrets, belonging to Gaussian, Inc.
  
 This software is provided under written license and may be
 used, copied, transmitted, or stored only in accord with that
 written license.
  
 The following legend is applicable only to US Government
 contracts under FAR:
  
                    RESTRICTED RIGHTS LEGEND
  
 Use, reproduction and disclosure by the US Government is
 subject to restrictions as set forth in subparagraphs (a)
 and (c) of the Commercial Computer Software - Restricted
 Rights clause in FAR 52.227-19.
  
 Gaussian, Inc.
 340 Quinnipiac St., Bldg. 40, Wallingford CT 06492
  
  
 ---------------------------------------------------------------
 Warning -- This program may not be used in any manner that
 competes with the business of Gaussian, Inc. or will provide
 assistance to any competitor of Gaussian, Inc.  The licensee
 of this program is prohibited from giving any competitor of
 Gaussian, Inc. access to this program.  By using this program,
 the user acknowledges that Gaussian, Inc. is engaged in the
 business of creating and licensing software in the field of
 computational chemistry and represents and warrants to the
 licensee that it is not a competitor of Gaussian, Inc. and that
 it will not use this program in any manner prohibited above.
 ---------------------------------------------------------------
  

 Cite this work as:
 Gaussian 09, Revision D.01,
 M. J. Frisch, G. W. Trucks, H. B. Schlegel, G. E. Scuseria, 
 M. A. Robb, J. R. Cheeseman, G. Scalmani, V. Barone, B. Mennucci, 
 G. A. Petersson, H. Nakatsuji, M. Caricato, X. Li, H. P. Hratchian, 
 A. F. Izmaylov, J. Bloino, G. Zheng, J. L. Sonnenberg, M. Hada, 
 M. Ehara, K. Toyota, R. Fukuda, J. Hasegawa, M. Ishida, T. Nakajima, 
 Y. Honda, O. Kitao, H. Nakai, T. Vreven, J. A. Montgomery, Jr., 
 J. E. Peralta, F. Ogliaro, M. Bearpark, J. J. Heyd, E. Brothers, 
 K. N. Kudin, V. N. Staroverov, T. Keith, R. Kobayashi, J. Normand, 
 K. Raghavachari, A. Rendell, J. C. Burant, S. S. Iyengar, J. Tomasi, 
 M. Cossi, N. Rega, J. M. Millam, M. Klene, J. E. Knox, J. B. Cross, 
 V. Bakken, C. Adamo, J. Jaramillo, R. Gomperts, R. E. Stratmann, 
 O. Yazyev, A. J. Austin, R. Cammi, C. Pomelli, J. W. Ochterski, 
 R. L. Martin, K. Morokuma, V. G. Zakrzewski, G. A. Voth, 
 P. Salvador, J. J. Dannenberg, S. Dapprich, A. D. Daniels, 
 O. Farkas, J. B. Foresman, J. V. Ortiz, J. Cioslowski, 
 and D. J. Fox, Gaussian, Inc., Wallingford CT, 2013.
 
 ******************************************
 Gaussian 09:  AS64L-G09RevD.01 24-Apr-2013
                 8-Dec-2018 
 ******************************************
 %Chk=CH400263
 %Mem=2GB
 %NProcShared=16
 Will use up to   16 processors via shared memory.
 ---------------------------------------------
 #T M05/Gen test Massage SCF=(tight,maxcyc=40)
 ---------------------------------------------
 -------
 M05 opt
 -------
 Symbolic Z-matrix:
 Charge =  0 Multiplicity = 1
 6-Bq                  0.        0.        0. 
 1-Bq                  0.97998   0.        0.5154 
 1-Bq                  0.15921  -0.01481  -1.09564 
 1-Bq                 -0.57557  -0.89656   0.30147 
 1-Bq                 -0.56362   0.91137   0.27877 
 6                     0.        0.        4.03128 
 1                    -0.00174  -0.01388   5.13843 
 1                    -1.02439   0.2026    3.6631 
 1                     0.68451   0.79322   3.67319 
 1                     0.34162  -0.98194   3.65039 
 
                    Distance matrix (angstroms):
                    1          2          3          4          5
     1  C    0.000000
     2  H    1.107242   0.000000
     3  H    1.107243   1.808119   0.000000
     4  H    1.107243   1.808119   1.808119   0.000000
     5  H    1.107243   1.808119   1.808119   1.808119   0.000000
     6  C    4.031278   3.649902   5.129407   3.878987   3.902515
     7  H    5.138451   4.726143   6.236146   4.950209   4.978771
     8  H    3.809029   3.737186   4.908535   3.565124   3.488317
     9  H    3.819697   3.269276   4.865240   3.976385   3.618551
    10  H    3.795563   3.346628   4.847001   3.473298   3.971397
                    6          7          8          9         10
     6  C    0.000000
     7  H    1.107243   0.000000
     8  H    1.107243   1.808119   0.000000
     9  H    1.107243   1.808119   1.808119   0.000000
    10  H    1.107243   1.808119   1.808119   1.808119   0.000000
 Symmetry turned off by external request.
 This structure is nearly, but not quite of a higher symmetry.
 Consider Symm=Loose if the higher symmetry is desired.
 Framework group  C1[X(C2H8)]
 Deg. of freedom    24
 Rotational constants (GHZ):     76.6916052      3.6928406      3.6928406
   276 basis functions,   360 primitive gaussians,   310 cartesian basis functions
     5 alpha electrons        5 beta electrons
       nuclear repulsion energy        13.2261669625 Hartrees.
 IMHF & INEx in M05                  614413                  385587
 NAtoms=   10 NActive=   10 NUniq=   10 SFac= 1.00D+00 NAtFMM=   60 NAOKFM=F Big=F
 ExpMin= 2.53D-02 ExpMax= 8.24D+03 ExpMxC= 2.81D+02 IAcc=3 IRadAn=         5 AccDes= 0.00D+00
 Harris functional with IExCor= 1009 and IRadAn=       5 diagonalized for initial guess.
 HarFok:  IExCor= 1009 AccDes= 0.00D+00 IRadAn=         5 IDoV= 1 UseB2=F ITyADJ=14
 ICtDFT=  3500011 ScaDFX=  1.000000  1.000000  1.000000  1.000000
 FoFCou: FMM=F IPFlag=           0 FMFlag=      100000 FMFlg1=           0
         NFxFlg=           0 DoJE=T BraDBF=F KetDBF=T FulRan=T
         wScrn=  0.000000 ICntrl=     500 IOpCl=  0 I1Cent=   200000004 NGrid=           0
         NMat0=    1 NMatS0=      1 NMatT0=    0 NMatD0=    1 NMtDS0=    0 NMtDT0=    0
 Symmetry not used in FoFCou.
 SCF Done:  E(RM05) =  -44.2931941027     A.U. after   10 cycles
            NFock= 10  Conv=0.11D-08     -V/T= 2.0246

 **********************************************************************

            Population analysis using the SCF density.

 **********************************************************************

 Alpha  occ. eigenvalues --  -11.62239  -0.92991  -0.62331  -0.62331  -0.62329
 Alpha virt. eigenvalues --   -0.06484  -0.00235  -0.00128  -0.00125   0.02109
 Alpha virt. eigenvalues --    0.02897   0.02901   0.03623   0.04216   0.04318
 Alpha virt. eigenvalues --    0.05907   0.07793   0.08003   0.08220   0.09616
 Alpha virt. eigenvalues --    0.10083   0.10265   0.10873   0.11342   0.11448
 Alpha virt. eigenvalues --    0.16800   0.19161   0.19831   0.19962   0.20499
 Alpha virt. eigenvalues --    0.21030   0.21086   0.21700   0.22043   0.22306
 Alpha virt. eigenvalues --    0.25827   0.27079   0.27131   0.27370   0.27723
 Alpha virt. eigenvalues --    0.28111   0.28211   0.29995   0.30210   0.30926
 Alpha virt. eigenvalues --    0.31746   0.32231   0.33065   0.34852   0.35428
 Alpha virt. eigenvalues --    0.38188   0.38504   0.39674   0.40286   0.41191
 Alpha virt. eigenvalues --    0.41541   0.41729   0.45249   0.45957   0.46361
 Alpha virt. eigenvalues --    0.46942   0.51566   0.51863   0.52795   0.55016
 Alpha virt. eigenvalues --    0.55607   0.56808   0.60193   0.61477   0.61572
 Alpha virt. eigenvalues --    0.65125   0.65422   0.67111   0.67286   0.69882
 Alpha virt. eigenvalues --    0.70265   0.70774   0.75048   0.75274   0.76302
 Alpha virt. eigenvalues --    0.77005   0.77325   0.79280   0.80685   0.81065
 Alpha virt. eigenvalues --    0.82084   0.83728   0.84749   0.86902   0.89163
 Alpha virt. eigenvalues --    0.89423   0.92365   0.94380   0.94772   0.95442
 Alpha virt. eigenvalues --    0.96314   0.97523   0.99099   0.99369   0.99874
 Alpha virt. eigenvalues --    1.01237   1.02577   1.03504   1.03970   1.04341
 Alpha virt. eigenvalues --    1.06398   1.06495   1.07457   1.09738   1.10779
 Alpha virt. eigenvalues --    1.11219   1.12126   1.14399   1.17615   1.19494
 Alpha virt. eigenvalues --    1.23435   1.24143   1.24674   1.24898   1.26526
 Alpha virt. eigenvalues --    1.29563   1.33091   1.33340   1.33890   1.34651
 Alpha virt. eigenvalues --    1.34981   1.36839   1.37729   1.37861   1.39736
 Alpha virt. eigenvalues --    1.40803   1.43997   1.47379   1.49814   1.50553
 Alpha virt. eigenvalues --    1.52856   1.53846   1.53907   1.54506   1.59590
 Alpha virt. eigenvalues --    1.62887   1.64937   1.65584   1.69266   1.70617
 Alpha virt. eigenvalues --    1.71661   1.81097   1.81470   1.84523   1.85149
 Alpha virt. eigenvalues --    1.86294   1.86499   1.95084   1.95169   1.95932
 Alpha virt. eigenvalues --    2.01086   2.01226   2.03980   2.06167   2.06568
 Alpha virt. eigenvalues --    2.07964   2.22647   2.27792   2.28147   2.33281
 Alpha virt. eigenvalues --    2.44109   2.44918   2.46485   2.61322   2.61446
 Alpha virt. eigenvalues --    2.66622   2.67826   2.68402   2.74034   2.85273
 Alpha virt. eigenvalues --    3.05346   3.05669   3.08936   3.08952   3.09236
 Alpha virt. eigenvalues --    3.12253   3.13165   3.20351   3.35206   3.35265
 Alpha virt. eigenvalues --    3.36667   3.54070   3.54204   3.54849   3.57485
 Alpha virt. eigenvalues --    3.57910   3.59527   3.61438   3.66384   3.66486
 Alpha virt. eigenvalues --    3.72550   3.98807   3.99969   4.00419   4.01564
 Alpha virt. eigenvalues --    4.01988   4.02487   4.02881   4.03168   4.04335
 Alpha virt. eigenvalues --    4.12391   4.12568   4.15984   4.17122   4.17759
 Alpha virt. eigenvalues --    4.18226   4.18871   4.29497   4.30268   4.30360
 Alpha virt. eigenvalues --    4.35964   4.36949   4.38153   4.44418   4.46314
 Alpha virt. eigenvalues --    4.46998   4.52801   4.53885   4.57108   4.58372
 Alpha virt. eigenvalues --    4.58431   4.59203   4.59845   4.60411   4.66038
 Alpha virt. eigenvalues --    4.75859   4.91827   4.91965   4.94963   4.98796
 Alpha virt. eigenvalues --    4.98942   4.99702   4.99731   5.13305   5.13510
 Alpha virt. eigenvalues --    5.14843   5.15687   5.16451   5.29579   5.29665
 Alpha virt. eigenvalues --    5.30681   5.30772   5.31338   5.32483   5.41398
 Alpha virt. eigenvalues --    5.41505   5.47397   5.47955   5.49013   5.54755
 Alpha virt. eigenvalues --    5.77028   5.77147   5.83391   6.13399   6.14287
 Alpha virt. eigenvalues --    6.14614   6.24119   6.24160   6.80469   6.81064
 Alpha virt. eigenvalues --    6.82872   6.97733   7.65528   7.65667   7.69253
 Alpha virt. eigenvalues --    8.04782   8.06736   8.11570  10.32370  15.61462
 Alpha virt. eigenvalues --   52.52742
          Condensed to atoms (all electrons):
 Mulliken charges:
               1
     1  C    0.000159
     2  H    0.002846
     3  H   -0.001102
     4  H   -0.001907
     5  H   -0.001618
     6  C   -0.778820
     7  H    0.107477
     8  H    0.236355
     9  H    0.218872
    10  H    0.217739
 Sum of Mulliken charges =  -0.00000
 Mulliken charges with hydrogens summed into heavy atoms:
               1
     1  C   -0.001623
     6  C    0.001623
 Electronic spatial extent (au):  <R**2>=            616.6795
 Charge=             -0.0000 electrons
 Dipole moment (field-independent basis, Debye):
    X=             -0.0000    Y=              0.0001    Z=             -0.0003  Tot=              0.0003

 Test job not archived.
 1\1\GINC-CHIMERA-NODE56\SP\RM05\Gen\C2H8\CONNORNM\08-Dec-2018\0\\#T M0
 5/Gen test Massage SCF=(tight,maxcyc=40)\\M05 opt\\0,1\C,0,0.,0.,0.\H,
 0,0.97997608,0.,0.5153958\H,0,0.15921221,-0.01481243,-1.0956359\H,0,-0
 .57556525,-0.89656249,0.30147355\H,0,-0.56362304,0.91137492,0.27876655
 \C,0,0.,0.,4.03127832\H,0,-0.00174248,-0.0138807,5.13843244\H,0,-1.024
 39321,0.20259855,3.66309583\H,0,0.68451207,0.79322259,3.67319019\H,0,0
 .34162362,-0.98194044,3.65039482\\Version=AS64L-G09RevD.01\HF=-44.2931
 941\RMSD=1.055e-09\Dipole=-0.0000048,0.0000222,-0.0001171\Quadrupole=0
 .0001222,0.0002143,-0.0003365,0.0000365,-0.0001054,0.0001561\PG=C01 [X
 (C2H8)]\\@


 FORGIVE MY NONSENSE AS I ALSO FORGIVE THOSE WHO THINK THEY TALK SENSE

                                                       -- ROBERT FROST
 Job cpu time:       0 days  0 hours 15 minutes 35.0 seconds.
 File lengths (MBytes):  RWF=     41 Int=      0 D2E=      0 Chk=      4 Scr=      1
 Normal termination of Gaussian 09 at Sat Dec  8 13:16:21 2018.
