 Entering Gaussian System, Link 0=/data/szalewicgrp/connornm/opt/Gaussian/g09-M05-par/g09/g09
 AtFile(1): aug-cc-pVTZ.gbs
 Initial command:
 /data/szalewicgrp/connornm/opt/Gaussian/g09-M05-par/g09/l1.exe "/scratch/local/Gau-28890.inp" -scrdir="/scratch/local/"
 Entering Link 1 = /data/szalewicgrp/connornm/opt/Gaussian/g09-M05-par/g09/l1.exe PID=     28891.
  
 Copyright (c) 1988,1990,1992,1993,1995,1998,2003,2009,2013,
            Gaussian, Inc.  All Rights Reserved.
  
 This is part of the Gaussian(R) 09 program.  It is based on
 the Gaussian(R) 03 system (copyright 2003, Gaussian, Inc.),
 the Gaussian(R) 98 system (copyright 1998, Gaussian, Inc.),
 the Gaussian(R) 94 system (copyright 1995, Gaussian, Inc.),
 the Gaussian 92(TM) system (copyright 1992, Gaussian, Inc.),
 the Gaussian 90(TM) system (copyright 1990, Gaussian, Inc.),
 the Gaussian 88(TM) system (copyright 1988, Gaussian, Inc.),
 the Gaussian 86(TM) system (copyright 1986, Carnegie Mellon
 University), and the Gaussian 82(TM) system (copyright 1983,
 Carnegie Mellon University). Gaussian is a federally registered
 trademark of Gaussian, Inc.
  
 This software contains proprietary and confidential information,
 including trade secrets, belonging to Gaussian, Inc.
  
 This software is provided under written license and may be
 used, copied, transmitted, or stored only in accord with that
 written license.
  
 The following legend is applicable only to US Government
 contracts under FAR:
  
                    RESTRICTED RIGHTS LEGEND
  
 Use, reproduction and disclosure by the US Government is
 subject to restrictions as set forth in subparagraphs (a)
 and (c) of the Commercial Computer Software - Restricted
 Rights clause in FAR 52.227-19.
  
 Gaussian, Inc.
 340 Quinnipiac St., Bldg. 40, Wallingford CT 06492
  
  
 ---------------------------------------------------------------
 Warning -- This program may not be used in any manner that
 competes with the business of Gaussian, Inc. or will provide
 assistance to any competitor of Gaussian, Inc.  The licensee
 of this program is prohibited from giving any competitor of
 Gaussian, Inc. access to this program.  By using this program,
 the user acknowledges that Gaussian, Inc. is engaged in the
 business of creating and licensing software in the field of
 computational chemistry and represents and warrants to the
 licensee that it is not a competitor of Gaussian, Inc. and that
 it will not use this program in any manner prohibited above.
 ---------------------------------------------------------------
  

 Cite this work as:
 Gaussian 09, Revision D.01,
 M. J. Frisch, G. W. Trucks, H. B. Schlegel, G. E. Scuseria, 
 M. A. Robb, J. R. Cheeseman, G. Scalmani, V. Barone, B. Mennucci, 
 G. A. Petersson, H. Nakatsuji, M. Caricato, X. Li, H. P. Hratchian, 
 A. F. Izmaylov, J. Bloino, G. Zheng, J. L. Sonnenberg, M. Hada, 
 M. Ehara, K. Toyota, R. Fukuda, J. Hasegawa, M. Ishida, T. Nakajima, 
 Y. Honda, O. Kitao, H. Nakai, T. Vreven, J. A. Montgomery, Jr., 
 J. E. Peralta, F. Ogliaro, M. Bearpark, J. J. Heyd, E. Brothers, 
 K. N. Kudin, V. N. Staroverov, T. Keith, R. Kobayashi, J. Normand, 
 K. Raghavachari, A. Rendell, J. C. Burant, S. S. Iyengar, J. Tomasi, 
 M. Cossi, N. Rega, J. M. Millam, M. Klene, J. E. Knox, J. B. Cross, 
 V. Bakken, C. Adamo, J. Jaramillo, R. Gomperts, R. E. Stratmann, 
 O. Yazyev, A. J. Austin, R. Cammi, C. Pomelli, J. W. Ochterski, 
 R. L. Martin, K. Morokuma, V. G. Zakrzewski, G. A. Voth, 
 P. Salvador, J. J. Dannenberg, S. Dapprich, A. D. Daniels, 
 O. Farkas, J. B. Foresman, J. V. Ortiz, J. Cioslowski, 
 and D. J. Fox, Gaussian, Inc., Wallingford CT, 2013.
 
 ******************************************
 Gaussian 09:  AS64L-G09RevD.01 24-Apr-2013
                 8-Dec-2018 
 ******************************************
 %Chk=CH400218
 %Mem=2GB
 %NProcShared=16
 Will use up to   16 processors via shared memory.
 ---------------------------------------------
 #T M05/Gen test Massage SCF=(tight,maxcyc=40)
 ---------------------------------------------
 -------
 M05 opt
 -------
 Symbolic Z-matrix:
 Charge =  0 Multiplicity = 1
 6-Bq                  0.        0.        0. 
 1-Bq                  0.93835   0.        0.58778 
 1-Bq                  0.19781  -0.40574  -1.01105 
 1-Bq                 -0.75461  -0.63011   0.50942 
 1-Bq                 -0.38155   1.03585  -0.08615 
 6                     0.        0.        2.89029 
 1                     0.2066    0.6341    3.77416 
 1                    -0.22305   0.64428   2.01786 
 1                     0.88631  -0.62597   2.66985 
 1                    -0.86987  -0.6524    3.09931 
 
                    Distance matrix (angstroms):
                    1          2          3          4          5
     1  C    0.000000
     2  H    1.107242   0.000000
     3  H    1.107242   1.808119   0.000000
     4  H    1.107243   1.808119   1.808119   0.000000
     5  H    1.107243   1.808119   1.808119   1.808119   0.000000
     6  C    2.890292   2.486375   3.927374   2.575855   3.174547
     7  H    3.832628   3.330247   4.896898   3.630519   3.925464
     8  H    2.129926   1.951677   3.233257   2.044994   2.145991
     9  H    2.881922   2.174753   3.751209   2.712948   3.458991
    10  H    3.284510   3.162759   4.253923   2.592547   3.638100
                    6          7          8          9         10
     6  C    0.000000
     7  H    1.107243   0.000000
     8  H    1.107243   1.808119   0.000000
     9  H    1.107243   1.808119   1.808119   0.000000
    10  H    1.107243   1.808119   1.808119   1.808119   0.000000
 Symmetry turned off by external request.
 This structure is nearly, but not quite of a higher symmetry.
 Consider Symm=Loose if the higher symmetry is desired.
 Framework group  C1[X(C2H8)]
 Deg. of freedom    24
 Rotational constants (GHZ):     76.6916056      6.8711549      6.8711549
   276 basis functions,   360 primitive gaussians,   310 cartesian basis functions
     5 alpha electrons        5 beta electrons
       nuclear repulsion energy        13.2261669951 Hartrees.
 IMHF & INEx in M05                  614413                  385587
 NAtoms=   10 NActive=   10 NUniq=   10 SFac= 1.00D+00 NAtFMM=   60 NAOKFM=F Big=F
 ExpMin= 2.53D-02 ExpMax= 8.24D+03 ExpMxC= 2.81D+02 IAcc=3 IRadAn=         5 AccDes= 0.00D+00
 Harris functional with IExCor= 1009 and IRadAn=       5 diagonalized for initial guess.
 HarFok:  IExCor= 1009 AccDes= 0.00D+00 IRadAn=         5 IDoV= 1 UseB2=F ITyADJ=14
 ICtDFT=  3500011 ScaDFX=  1.000000  1.000000  1.000000  1.000000
 FoFCou: FMM=F IPFlag=           0 FMFlag=      100000 FMFlg1=           0
         NFxFlg=           0 DoJE=T BraDBF=F KetDBF=T FulRan=T
         wScrn=  0.000000 ICntrl=     500 IOpCl=  0 I1Cent=   200000004 NGrid=           0
         NMat0=    1 NMatS0=      1 NMatT0=    0 NMatD0=    1 NMtDS0=    0 NMtDT0=    0
 Symmetry not used in FoFCou.
 SCF Done:  E(RM05) =  -45.9517936128     A.U. after   11 cycles
            NFock= 11  Conv=0.32D-08     -V/T= 2.0334

 **********************************************************************

            Population analysis using the SCF density.

 **********************************************************************

 Alpha  occ. eigenvalues --  -12.07085  -0.99704  -0.71500  -0.71492  -0.71485
 Alpha virt. eigenvalues --   -0.09128  -0.01924  -0.01902  -0.01892  -0.00656
 Alpha virt. eigenvalues --   -0.00565  -0.00441   0.03122   0.03751   0.04664
 Alpha virt. eigenvalues --    0.05447   0.05898   0.06640   0.07084   0.07841
 Alpha virt. eigenvalues --    0.08353   0.09653   0.11353   0.12489   0.13217
 Alpha virt. eigenvalues --    0.14972   0.16664   0.18702   0.19665   0.20039
 Alpha virt. eigenvalues --    0.20737   0.21376   0.21602   0.22687   0.23671
 Alpha virt. eigenvalues --    0.24352   0.24519   0.25228   0.26845   0.27509
 Alpha virt. eigenvalues --    0.27645   0.29204   0.29488   0.31227   0.31887
 Alpha virt. eigenvalues --    0.32992   0.33891   0.34830   0.35434   0.37191
 Alpha virt. eigenvalues --    0.38084   0.39786   0.40497   0.40935   0.42492
 Alpha virt. eigenvalues --    0.43309   0.44280   0.45888   0.47275   0.47623
 Alpha virt. eigenvalues --    0.48989   0.51992   0.53087   0.54488   0.54611
 Alpha virt. eigenvalues --    0.54850   0.56334   0.57165   0.58119   0.59924
 Alpha virt. eigenvalues --    0.62021   0.63252   0.63631   0.65100   0.65321
 Alpha virt. eigenvalues --    0.68080   0.69557   0.70319   0.71779   0.72570
 Alpha virt. eigenvalues --    0.75713   0.77086   0.79276   0.80368   0.81269
 Alpha virt. eigenvalues --    0.83033   0.83712   0.85481   0.87250   0.87989
 Alpha virt. eigenvalues --    0.89596   0.90359   0.91749   0.93122   0.94513
 Alpha virt. eigenvalues --    0.95292   0.97567   0.97781   1.00346   1.00483
 Alpha virt. eigenvalues --    1.02272   1.03771   1.04469   1.04787   1.06742
 Alpha virt. eigenvalues --    1.09805   1.10571   1.12253   1.12796   1.14037
 Alpha virt. eigenvalues --    1.16200   1.16579   1.17464   1.18326   1.21194
 Alpha virt. eigenvalues --    1.22495   1.23205   1.24777   1.25324   1.27344
 Alpha virt. eigenvalues --    1.29464   1.31265   1.32084   1.32557   1.34755
 Alpha virt. eigenvalues --    1.35624   1.38688   1.40381   1.41426   1.43103
 Alpha virt. eigenvalues --    1.45992   1.48041   1.48887   1.50835   1.52497
 Alpha virt. eigenvalues --    1.54417   1.55350   1.56936   1.61529   1.65761
 Alpha virt. eigenvalues --    1.67372   1.68636   1.71533   1.74976   1.76707
 Alpha virt. eigenvalues --    1.78107   1.79812   1.81541   1.83243   1.83499
 Alpha virt. eigenvalues --    1.87989   1.88534   1.92781   1.93803   1.95195
 Alpha virt. eigenvalues --    1.95964   2.02833   2.05418   2.07329   2.08943
 Alpha virt. eigenvalues --    2.10820   2.25564   2.29041   2.29441   2.34325
 Alpha virt. eigenvalues --    2.40284   2.40721   2.51158   2.53390   2.55787
 Alpha virt. eigenvalues --    2.60395   2.63418   2.64309   2.77111   2.80588
 Alpha virt. eigenvalues --    3.01455   3.03650   3.07659   3.08712   3.11434
 Alpha virt. eigenvalues --    3.14458   3.16337   3.22155   3.25399   3.28610
 Alpha virt. eigenvalues --    3.31869   3.47349   3.49021   3.50478   3.51296
 Alpha virt. eigenvalues --    3.54355   3.55776   3.58754   3.62403   3.64981
 Alpha virt. eigenvalues --    3.79760   3.89559   3.91958   3.93008   3.94487
 Alpha virt. eigenvalues --    3.97930   4.00571   4.02107   4.03613   4.05753
 Alpha virt. eigenvalues --    4.07303   4.10203   4.12386   4.15155   4.16070
 Alpha virt. eigenvalues --    4.18785   4.19946   4.21356   4.25110   4.25665
 Alpha virt. eigenvalues --    4.29015   4.32604   4.34889   4.38374   4.44609
 Alpha virt. eigenvalues --    4.45005   4.48587   4.50275   4.52069   4.55039
 Alpha virt. eigenvalues --    4.57542   4.62106   4.62542   4.68664   4.75852
 Alpha virt. eigenvalues --    4.82818   4.83519   4.87080   4.88540   4.90311
 Alpha virt. eigenvalues --    4.91607   4.97433   5.01736   5.03802   5.04537
 Alpha virt. eigenvalues --    5.06844   5.15285   5.17493   5.19515   5.22729
 Alpha virt. eigenvalues --    5.23519   5.25455   5.28078   5.35010   5.37453
 Alpha virt. eigenvalues --    5.38436   5.47935   5.48585   5.52171   5.56766
 Alpha virt. eigenvalues --    5.65283   5.68339   5.77370   6.05251   6.07889
 Alpha virt. eigenvalues --    6.10246   6.15728   6.16689   6.75897   6.76642
 Alpha virt. eigenvalues --    6.78137   6.93211   7.55760   7.59119   7.64888
 Alpha virt. eigenvalues --    8.01780   8.04785   8.10820  10.41809  15.40724
 Alpha virt. eigenvalues --   53.00374
          Condensed to atoms (all electrons):
 Mulliken charges:
               1
     1  C   -0.064244
     2  H    0.174157
     3  H   -0.033649
     4  H    0.063398
     5  H    0.061804
     6  C    0.150078
     7  H   -0.621197
     8  H    0.559027
     9  H   -0.096901
    10  H   -0.192474
 Sum of Mulliken charges =   0.00000
 Mulliken charges with hydrogens summed into heavy atoms:
               1
     1  C    0.201466
     6  C   -0.201466
 Electronic spatial extent (au):  <R**2>=            333.9006
 Charge=              0.0000 electrons
 Dipole moment (field-independent basis, Debye):
    X=              0.0001    Y=              0.0000    Z=             -0.0002  Tot=              0.0003

 Test job not archived.
 1\1\GINC-CHIMERA-NODE56\SP\RM05\Gen\C2H8\CONNORNM\08-Dec-2018\0\\#T M0
 5/Gen test Massage SCF=(tight,maxcyc=40)\\M05 opt\\0,1\C,0,0.,0.,0.\H,
 0,0.93834959,0.,0.58778057\H,0,0.1978116,-0.40573946,-1.0110549\H,0,-0
 .75461132,-0.63011021,0.5094201\H,0,-0.38154988,1.03584968,-0.08614577
 \C,0,0.,0.,2.89029228\H,0,0.20659974,0.63410056,3.77415821\H,0,-0.2230
 4509,0.64427609,2.01785594\H,0,0.88631155,-0.62597253,2.66984686\H,0,-
 0.8698662,-0.65240412,3.0993081\\Version=AS64L-G09RevD.01\HF=-45.95179
 36\RMSD=3.181e-09\Dipole=0.0000437,0.0000106,-0.0000979\Quadrupole=-0.
 00013,-0.0009002,0.0010302,0.0011561,-0.00103,0.0018514\PG=C01 [X(C2H8
 )]\\@


 IF THERE IS ONE WAY BETTER THAN ANOTHER IT IS THE WAY OF NATURE.

                          -- ARISTOTLE
 Job cpu time:       0 days  0 hours 19 minutes 54.1 seconds.
 File lengths (MBytes):  RWF=     41 Int=      0 D2E=      0 Chk=      4 Scr=      1
 Normal termination of Gaussian 09 at Sat Dec  8 15:20:43 2018.
