       5.8021899988     117.9389400936     203.8299899396     194.1751701714      46.3941799559     195.4142500050       0.0000000000      -0.9528956910      -7.5844841200      24.7072569200     -21.2670070900      19.5263200500     -16.7999542300       1.9138333700      -1.4488605810       0.0000000000       0.0000000000
