       5.8621287350     131.2712522278      75.6920299190     139.6595866214      39.2580558676     220.3051044354       0.0000000000      -2.0472402020      -2.9083127200      12.9574445800      -9.0876332100       8.2766424900     -10.9145851000       0.9783968700      -1.3491931020       0.0000000000       0.0000000000
