       7.3296403581      59.8546259388     314.9571276676     266.7119123501     136.4931588021      68.6607688585       0.0000000000      -3.2847387840      -1.3784083300       0.8550584700      -0.4751725300       0.2472592700      -2.5907826800       0.1275512700      -0.0702442640       0.0000000000       0.0000000000
