       7.6344400000      84.7093593826      49.7721395271     355.1969901576      84.1903506093     230.2489889284       1.0000000000      -4.1675122070      -3.6672527000       6.2626687500      -3.3930010200       2.9141185200      -6.2553681700       0.5217673500      -0.5504449470       0.0000000000       0.0000000000
