       4.6017412981     126.8040209628     263.9999871577     119.9997022929     177.4374362668     167.9996775388       0.0000000000      20.3400100950     -30.7639188100      81.7364222600     -51.8337148400      44.6497412700     -29.4489887900       6.5323718100      -0.5319027850       0.0000000000       0.0000000000
