       9.7947807567      76.1477321113     170.1536690164      72.0516497125     120.6466501102       2.6948374980       1.0000000000      -3.9308590200      -2.4500705400       2.7501082700      -1.2874597300       0.9444777000      -3.9421949700       0.2500179200      -0.1957376700      -2.7367107391      -2.7367100756
