       9.3876605890      27.9564427035     150.4704024563      48.7110829505     145.5971023722       2.7877805555       1.0000000000      -1.2010188000      -0.2761561900       0.1676039900      -0.1336340100       0.0311676200      -0.9857946400       0.0131610800      -0.0173666600       0.0000000000       0.0000000000
