       6.3951899999     144.0392400012     354.3348899446     181.7655902364      37.4213101524      68.4627399247       1.0000000000      -6.0534836290      -4.3485201500       7.4912166500      -4.0329513200       3.3118641300      -8.3910899600       0.6795531200      -0.7635560890       0.0000000000       0.0000000000
