       9.2622088226     121.0498029638     179.7124671528     180.7178020367     136.7521478239      27.5200653317       1.0000000000      -1.1322269290      -5.0151054300      10.3429080600      -5.6040622200       4.8331504400      -5.1168451400       0.6830911700      -1.2553638090       0.0000000000       0.0000000000
