       7.2575344866     135.6870259545      68.5420275027     320.2189346057      65.1093928333     197.1537780249       1.0000000000       7.3996343110     -14.1806695700      42.9051605900     -31.9005813000      28.3597362800     -16.7111644300       2.6781411300      -3.7509883890       0.0000000000       0.0000000000
