       7.3361707395      70.1614914552      39.2230616876     280.4847666162      84.0210928954     240.4298972080       0.0000000000      -2.5638095010      -1.1175574300       3.0914565200      -1.8649411200       1.6812860900      -4.3654173400       0.2790756200      -0.2677118310       0.0000000000       0.0000000000
