       9.5974574460     112.1508102015     215.6276149229     359.9206996573     112.3176177602     215.5612725150       0.0000000000      -0.0912520000       0.2624763800       0.0019713500      -0.0305730000       0.0010045700      -0.3272517100       0.0002953000       0.0008251100      -2.7367091077      -2.7367091215
