      10.9000000001      72.6408898813     197.5912299495       0.0253531500      72.3793302142     197.6246300064       0.0000000000      -2.2417963470      -1.7810996200       1.7126730900      -0.8182549300       0.5584575100      -1.8635357800       0.1331923000      -0.1832289270       0.0000000000       0.0000000000
