       7.4368489621      92.1935277652     249.0468201751      58.6996996171      78.6704527411      27.0764600215       0.0000000000      -1.8825105140      -1.3210276500       5.7614215700      -2.6048264600       2.1943074500      -6.1957409500       0.7205023900      -0.4371468640       0.0000000000       0.0000000000
