       7.9471956320      49.0343542960     318.6962349290       5.3639301389      93.9727214784     314.0969322661       0.0000000000      -3.1366737450      -0.8059391200       0.6172536800      -0.4872313600       0.1935402900      -2.6544942700       0.0626530800      -0.0624560450       0.0000000000       0.0000000000
