      11.1456700002      76.9502220048     218.6767494021      22.7013687731     103.0497684776      38.6767496871       0.0000000000       0.2152717920       0.6466551700       0.9670633700      -0.3369339600       0.1713262100      -1.2667382900       0.0794799300      -0.0455806280       0.0000000000       0.0000000000
