       5.4912362558      44.4606116543      13.8907935994     227.8160593497     153.5309035546     279.2528692947       0.0000000000      -2.1937608630      -4.0462191200      12.8790827400      -6.9440508700       6.2407806300     -10.2034861900       0.9974359000      -1.1173039530       0.0000000000       0.0000000000
