       5.0651799844     123.9174980107     202.7304126342     248.4895414905      30.9888516050     353.1843995543       0.0000000000       0.8053427380     -10.5127588300      30.3970902900     -24.0340740900      21.7857427300     -18.0527089200       3.2254545900      -2.0034030420       0.0000000000       0.0000000000
