       7.0830199985     105.2846788599     119.4700595544       0.0000094420     105.2846803511     119.4700601979       1.0000000000      -6.3449061110      -7.1339003800      11.5544294000      -6.4332314100       5.6572317200      -9.6188979300       0.9595742500      -1.3301117610       0.0000000000       0.0000000000
