       6.0479996581      99.9016756823     215.9531449873     218.2951429832     147.5841351776     318.4108687157       0.0000000000      57.0203857940     -73.6591972500     182.8330426900    -149.6635801300     119.6072228200     -40.6060254300      10.3787363100       8.1301867840       0.0000000000       0.0000000000
