       9.3280238389      85.4247836675     157.8931620481     347.8189200099      84.3981296247     338.9726390554       1.0000000000      -2.9023104850      -2.7330516200       6.8288983600      -3.4802165300       2.8034154200      -6.2992728000       0.5790286300      -0.6011119350       0.0000000000       0.0000000000
