       8.8439381384      75.3144611435     191.5280694535     270.6685769661      98.7505265502     261.8941928044       0.0000000000      -1.5696387430      -2.0370490400       4.7588965500      -2.0885881400       1.7840468700      -4.1170375500       0.5735968500      -0.4435042930       0.0000000000       0.0000000000
