       6.5820999988      55.7858196876     237.5164398048      98.7129296438      66.7546600914     358.8962000677       1.0000000000      -3.2246800310      -2.6020251700       9.0298731000      -5.0268936700       4.4307450700      -9.1826897000       0.7647363600      -0.6384260410       0.0000000000       0.0000000000
