       7.1959955389     123.2541752948     285.7486225536      81.9252626933      66.4516222599      82.0348052475       1.0000000000      -2.9175698340      -1.9209218000       5.1038125000      -2.5197385000       2.1761358000      -5.7188980700       0.4291963800      -0.4671561540       0.0000000000       0.0000000000
