       6.7772168135     154.6827267796      91.4587998442     247.7097054776      26.1001134655     355.4788043170       1.0000000000      -1.0264250950       0.3864039800       0.1398676200      -0.1724468000       0.0413577500      -1.4308857700       0.0145382400      -0.0052601050       0.0000000000       0.0000000000
