      10.2181799999      54.5985398840     336.0826399566      56.2040497830     136.0749498790      77.6944802682       0.0000000000      -0.7723314980      -0.4061563300       0.0062119800      -0.0354344500       0.0010749500      -0.3339189100       0.0007227000      -0.0048314380       0.0000000000       0.0000000000
