       5.9022914988      53.0813810227     359.9999999233      23.9999998699      89.9541607109     288.0000000992       0.0000000000      20.1816401760     -33.0765770200      85.6482854600     -99.7811818100      81.7544589800     -26.3132799000       5.3326979400       6.6172365160       0.0000000000       0.0000000000
