       5.1876924697     106.7546754570     187.3687579884     214.0628740612      32.9304421201      11.4172504656       0.0000000000       9.1172642870     -26.1031707800      65.0369838200     -50.5595100900      45.3262748800     -27.4516900200       4.1250999400      -1.2567234630       0.0000000000       0.0000000000
