       6.5314581822     104.3682061779     331.8368268241     214.1653985935     148.6271876942     215.6577155798       0.0000000000      -3.6841582930      -8.3513654300      20.7980320200     -11.7180882300      10.1792372200     -13.7859233300       1.6035327900      -2.4095833330       0.0000000000       0.0000000000
