       6.3382532455      82.8462290010      31.4891122686      18.1694818324      43.8788555268     264.0335226556       0.0000000000       5.6917571300     -14.0012417700      37.6021095300     -38.8063019300      35.1076071700     -16.0846216800       3.2402146900      -1.3660088800       0.0000000000       0.0000000000
