       6.2571374440     144.1148449502     169.6342167587     101.9115293052     118.5188310882     212.5565457621       0.0000000000      -1.3956990820      -3.4404055000      10.4551910400      -9.7478273000       8.9718434700      -7.6386546900       1.1593009800      -1.1551470820       0.0000000000       0.0000000000
