       5.8746221388      24.8081800253     105.2902996475     173.1550809116      89.9377009168     162.9179544275       0.0000000000      24.9235261500     -37.2435537500     102.8000762600     -74.3147815200      64.1508175900     -34.0047165900       5.5485431400      -2.0128589800       0.0000000000       0.0000000000
