       6.5727399011     148.7388197347      72.5764613746     103.5107160202      55.6521238040      27.6555758003       0.0000000000      -1.7148427050       0.3557564800       1.1066586700      -0.8242985600       0.6098293900      -2.9805373100       0.0958182600      -0.0780696250       0.0000000000       0.0000000000
