       5.0808810183     137.4650709036     168.5300053205     314.8308275772     149.1656175863     107.1384894599       0.0000000000       4.5386511950      -5.1155017000      23.8968715400     -11.8068436000      10.5041228400     -12.6106070900       2.0888843300      -2.4182751250       0.0000000000       0.0000000000
