       8.4258600014      88.7319100673     130.8220500633     150.4587006315      48.6831998021     199.6393798409       0.0000000000      -2.7069776730      -1.4222789700       3.9055275100      -2.1170157100       1.7190404700      -4.7886769300       0.3532691900      -0.3568432230       0.0000000000       0.0000000000
