       6.5000000028      60.8680195200     269.2849403223     359.9923394100      60.8719992486     269.2844102417       0.0000000000      -3.9930419100      -2.2189701900       6.0368875200      -3.3032384300       2.8034639200      -7.3000934900       0.5061200800      -0.5172113200       0.0000000000       0.0000000000
