       7.7211399995     114.7157699667     169.0235100113     116.0178300095      90.4939399865      28.3087199990       0.0000000000      -4.1867572430      -3.6062604600       6.3318225300      -3.3351947900       2.6673612000      -6.0838945800       0.5254552400      -0.6860463730       0.0000000000       0.0000000000
