       9.0971699989     110.5454602978     215.1869398848      45.3511094801      66.4419798538     131.2487100753       0.0000000000      -3.1213051830      -3.6064449800       5.7997834000      -2.7016046800       2.2401085000      -4.8073697900       0.4872684700      -0.5330461130       0.0000000000       0.0000000000
