       6.7203691745     144.1070846894      81.8457261050     317.5575140649     119.6654748550     222.1751399491       0.0000000000      -1.4377880520      -0.3482402400       2.5382140000      -2.0075157000       1.7994117900      -3.5289325400       0.3453872600      -0.2361126120       0.0000000000       0.0000000000
