       9.5329899998     115.7028805449     328.7850598847      12.5653888296     100.8292301370     225.8451800472       1.0000000000      -0.6623078360      -1.7687545200       5.2712605400      -2.0021331300       1.7280630300      -3.8768813400       0.4236713500      -0.4375337560       0.0000000000       0.0000000000
