       8.5000000019      65.1051452122     241.8867776800     179.9237219565     115.0298023193      61.9118712680       0.0000000000     188.9265364200    -329.4704679900     864.6690598000    -743.5631662700     151.4220706500     -68.9018857200      -3.5615067400     318.3324326800       0.0000000000       0.0000000000
