       8.1497676936     119.0425746367     153.3612442320     170.5542252618     145.2864646786     198.2167052631       0.0000000000      -1.6102470970      -0.5788076900       0.4816031400      -0.2993101600       0.1690734600      -1.3920300600       0.0727091500      -0.0634849270       0.0000000000       0.0000000000
