      12.5376844065     106.4743588373     115.3027362755     355.6012592104     102.8794796945      52.2747297396       1.0000000000       0.2336855150       0.4641739600       0.0116158800      -0.0362251100       0.0008522300      -0.2043335500       0.0008183200      -0.0032162250       0.0000000000       0.0000000000
