       7.1711093355      72.1292330235     187.3834133985     286.3485793754      48.3137082259       4.7290693367       0.0000000000      12.5895409410     -22.5041050400      59.3634367300     -31.7800825700      28.3582060000     -21.1866986300       4.7375725200      -4.3987880690       0.0000000000       0.0000000000
