       6.1190499025      66.3768000387     335.9999999848      23.9999999434      66.3767999600     312.0000000270       0.0000000000      30.3485395730     -36.6718504200      94.9965684000    -106.5535126200      88.2149591000     -27.3692708500       5.9544982800      11.7771476830       0.0000000000       0.0000000000
