       5.6548602669      48.0790450036     280.8533099272     264.9654079262      23.8462479304     230.8708381292       0.0000000000      -2.1030798230      -3.6486670400      10.6951700300      -5.8464176300       5.3796515800      -9.0677739600       1.2096913600      -0.8247341730       0.0000000000       0.0000000000
