       9.5006299990      96.9707999492     177.8494299086     179.6032399414      86.7077301650     171.8967399788       0.0000000000      -1.8967823300      -0.7055249600       2.6466900100      -1.1775028400       0.8952208600      -3.5354743000       0.2143904300      -0.2345815400       0.0000000000       0.0000000000
