       7.7934921293     154.0109233943     285.7831201876      69.1215754371      68.1398447496     143.2098973486       0.0000000000      -4.5154936800      -4.4660251500       7.8744266300      -4.2112033400       3.4194789400      -7.2709331200       0.6967023400      -0.5579399800      -2.7367124012      -2.7367113682
