       5.9393926445      43.7087485597      24.4615401566      41.5099797107      72.1214896783     227.2162987168       0.0000000000       3.9135862150     -17.4527070600      45.1827055400     -37.2423069500      33.0452974900     -18.0733153700       2.5843896700      -4.1304771050       0.0000000000       0.0000000000
