      11.1722899978     109.3983499823     182.5704900112     109.2603601217      71.8947996493     208.3035900328       0.0000000000      -0.1177424540       0.0930792900       0.0000414500      -0.0195741800       0.0000608600      -0.1928416000       0.0000320100       0.0014597160       0.0000000000       0.0000000000
