       7.5189299995      95.4261400046     320.4509599720     299.7562600070      22.8295700250     180.9882700629       1.0000000000      -3.4306775510      -4.5875441600      10.4487356100      -5.5698132200       4.6780606100      -8.2236522200       0.8667420400      -1.0432062110       0.0000000000       0.0000000000
