       7.7017772961     107.4150222158      96.8163189486     305.7155890189     151.2824173128     345.5452771322       0.0000000000      -3.3450309990      -1.6725168400       2.7029345300      -1.4290451800       1.1236610400      -4.0478835300       0.2441820500      -0.2663630690       0.0000000000       0.0000000000
