       8.2247024999      89.9541610165     335.9999999313      96.0000004890     113.5231797462       0.0000000138       0.0000000000      27.6542393880     -42.3261226700     102.2625218200     -63.3882085000      54.6944325200     -32.2676589000       8.3255215600       0.3537535680       0.0000000000       0.0000000000
