      10.6629472327     144.4433856547     101.3215046147     194.5159394919      43.6319180935     198.0914518388       1.0000000000      -0.1261798900       0.0187709600      -0.0000254500      -0.0118967800       0.0000286900      -0.1325105300       0.0000111100      -0.0005578900      -2.7367087771      -2.7367089517
