       8.3907273743      75.3837232012     269.3499142271     199.7033129061       9.4146893895     123.2462857181       0.0000000000      -1.1912006020      -0.4430486500       0.0390702400      -0.0707828200       0.0078616600      -0.7248123000       0.0073749000      -0.0068636420       0.0000000000       0.0000000000
