       7.4972400000      90.8713498908     207.8336100187     121.9438400714      62.8329799328     342.0165000037       0.0000000000      -4.0776614320      -3.4617438600       6.7442488100      -3.5615143300       2.8826878700      -6.5649132300       0.5659446600      -0.6823713420       0.0000000000       0.0000000000
