       7.4837610000     176.5131755605      21.4226218924      52.9738589085     116.0975024438     353.7906779765       0.0000000000      -5.3311822400      -4.7257656700       7.2894144500      -3.5782084500       3.0346062500      -7.1388474900       0.6007225600      -0.8131038900       0.0000000000       0.0000000000
