       5.5244127604      41.8797066808     248.9599381896     180.2759738371     126.3612266911     246.8582065339       1.0000000000      -4.1050164050      -1.2305969400       6.4433510500      -4.4934035800       3.9473191800      -8.7964256000       0.5558915500      -0.5311520650       0.0000000000       0.0000000000
