       8.3842099995     133.9091999166     344.5194400958     143.4241396653     150.1660599330     268.2189999421       0.0000000000      -1.8997501170      -0.6750075700       0.7074458900      -0.4123295700       0.2569754400      -1.7602229400       0.0575297500      -0.0741411170       0.0000000000       0.0000000000
