      11.7627899999      91.6764888971     300.8382700408     168.0216586284      89.8810263261     138.5957790652       1.0000000000      -0.7932177020      -0.3750630100       0.0218564700      -0.0360927500       0.0038593600      -0.4135938300       0.0023543000       0.0034617580       0.0000000000       0.0000000000
