      10.1528337149      34.5077896868     137.3156198562     189.3515304755     156.9042247446     181.3528927674       1.0000000000       0.1979410500       0.3347067400      -0.0000719800      -0.0120197700       0.0000160600      -0.1244248100       0.0000041900      -0.0002693800      -2.7367088364      -2.7367088650
