       6.0771735463      76.9081282624     267.8132480702     148.2435884329      67.8213798412      66.2309945554       0.0000000000      -2.8724806090      -4.9703549700      12.8288925500      -8.7009548000       7.9104628900     -10.3018738100       1.4280147000      -1.0666671590       0.0000000000       0.0000000000
