       5.0957299998      13.8905424785      70.5211555791     324.3393733351      71.5189849165     280.6339214280       0.0000000000      -6.4813699700      -4.4341462700      13.1245497800      -7.9894141700       6.7334473000     -14.1047736000       1.1432660500      -0.9542990500       0.0000000000       0.0000000000
