       7.8168794857      76.9688622115     141.2018787764     214.5275812341     150.0987565492     188.8036959820       0.0000000000      -4.8340938770      -5.2926140300       7.7267495200      -4.2922151500       3.5506169100      -6.3537817900       0.6803941400      -0.8532434770       0.0000000000       0.0000000000
