       8.7000000010     104.7983995411     219.6427402027     180.0859781421      75.0851702945      39.5964699514       0.0000000000      -1.7363749970      -0.7378857400       0.0602352400      -0.1156856700       0.0186730600      -0.9554312600       0.0067924600      -0.0130730870       0.0000000000       0.0000000000
