      10.1302099985     101.1412898743     343.1777100126     230.0042293210     114.9896401921     349.6452898334       1.0000000000      -0.0615219110      -3.0762629400       9.9699473200      -4.0829967800       3.6779191400      -6.1281613300       0.7650831400      -1.1870504510       0.0000000000       0.0000000000
