       7.9611500002      50.9977899660     336.4077300629     173.0037001757     109.1860900315      10.2136300126       1.0000000000      -4.9222614770      -4.6352765400       7.7422181900      -3.6158894700       3.0682045600      -7.3425349900       0.6589519400      -0.7979351770       0.0000000000       0.0000000000
