      10.3646782314     137.1628260725      73.6594459036      21.4732306903     148.3964627751     332.4363337744       1.0000000000       0.0928931520       0.4531492400       0.0106894900      -0.0530970000       0.0011754700      -0.3302758100       0.0010839600       0.0101677920       0.0000000000       0.0000000000
