       5.3355300000      59.0384898492      49.0398398716     179.9999902804     120.9615096633     229.0398404647       1.0000000000      -1.5417247720      -4.7603097600      16.7322866500     -12.5466045900      11.5991131300     -12.3367711000       1.3537648000      -1.5832038920       0.0000000000       0.0000000000
