       7.3023477809      76.4096906098      11.1749379385     192.4392923358     149.4422391532     160.6204069873       0.0000000000      -0.6212815090       0.9889370700       0.1073859100      -0.2044933800       0.0407527100      -1.5977882000       0.0257607500       0.0181636310       0.0000000000       0.0000000000
