       5.8891199994      62.6716400105      26.8683399753     180.0000000491     117.3283500259     206.8683400009       1.0000000000      -1.7370158070      -3.2315607500      12.3213286800      -9.8965355100       9.1661679800     -10.0667771700       1.0105404400      -1.0401794870       0.0000000000       0.0000000000
