       7.5552400007      72.9434997628     316.3750712735     179.9999590072     107.0566790163     136.3752691970       1.0000000000       5.7982621670     -17.6319262400      43.3165726300     -32.4141805300      28.6099678500     -13.8679644400       2.3669580900      -4.5811651930       0.0000000000       0.0000000000
