       7.8490533434     112.2117539530     136.8583523920     194.0804815846      30.7014400348     261.2569212777       0.0000000000      -1.0186994100       0.2238069500       0.0675643100      -0.1404220300       0.0277954200      -1.2127327100       0.0163083600      -0.0010197100       0.0000000000       0.0000000000
