       8.9988395016      78.4185922537     168.0000000752     119.9999990178      78.4185913436     144.0000002076       0.0000000000      16.0562217630     -30.0211955000      67.4520420700     -40.7918549400      35.0896070900     -21.3535321800       5.2989514900       0.3822037330       0.0000000000       0.0000000000
