       4.3797990015      49.7533279422     305.3659349708     140.3861730211     142.5784380340     287.6323399902       0.0000000000      -9.3085786640      -4.9215631600      12.9570029100      -7.1565021100       5.8288193700     -16.0811307700       1.1301503400      -1.0653552440       0.0000000000       0.0000000000
