       5.4209741447      33.5443416731     147.0363807962     203.0283736469     138.1639941366      65.1540756349       0.0000000000      -0.3101140250     -10.7190356200      29.4042078900     -14.0582186800      12.1887558100     -15.9630299900       1.7595407500      -2.9223341750       0.0000000000       0.0000000000
