       4.8460321104     149.1130881539      81.5981303400     350.2607698275     116.3173984358     101.7951427019       0.0000000000      11.8707940140     -27.6687205100      72.5927170000     -46.8321168500      41.7418438700     -30.2019594900       6.3286787700      -4.0896487760       0.0000000000       0.0000000000
