       8.4660200002     108.5648500008     193.9795899717      65.8214000385      85.7403999656     159.7052699817       0.0000000000      -3.1036057850      -1.7218816100       4.3395541800      -2.4836985200       1.9909600800      -5.1146880700       0.3488399000      -0.4626917450       0.0000000000       0.0000000000
