      10.4708300002     113.8387698665       4.9217699452      64.1660909654      95.7872097284     336.4583603626       1.0000000000      24.6624017060     -17.4268699200      59.7076693900     -27.1634234300      23.0873610800     -12.8778382600       2.7251424600      -3.3896396240       0.0000000000       0.0000000000
