      10.1557067857      97.0324671094     358.0405283702     298.1449341418      34.1916475836     145.5972146743       1.0000000000      -1.8816928130      -1.1206045800       0.0715514200      -0.1125719600       0.0151707100      -0.7332637000       0.0072032800      -0.0091779830       0.0000000000       0.0000000000
