       8.3027403840     108.6415828928     248.3945269211     338.1947692092      74.0187682006     305.9561041729       1.0000000000      -2.3120436050      -1.4671501800       2.0538230000      -0.9453853400       0.7527735000      -2.6971997400       0.1481709700      -0.1570758250       0.0000000000       0.0000000000
