       6.1952975752     128.7853750868      35.5212069415     214.4045256620      26.4697139860     217.4942559173       0.0000000000      -0.0162809680      -6.0284832300      20.7483390800     -17.0761625700      15.4471904400     -13.6948877300       1.5616560000      -0.9739329680       0.0000000000       0.0000000000
