       4.8471875298     153.6702016051     255.5960432723      82.2704426387      96.4917377477     240.2166865125       0.0000000000      40.3624077090     -54.7487863200     131.5652395400    -147.0005973000     121.9546739500     -36.4791710600       8.6427226200      16.4283262890       0.0000000000       0.0000000000
