       7.9428740893     152.5268866625     116.8116187221      17.3185299834     135.7927304005      30.1397895571       1.0000000000      -2.5264940080      -1.2238618400       0.1398043200      -0.1859627600       0.0317423100      -1.2806088400       0.0156346200      -0.0232418280       0.0000000000       0.0000000000
