       6.7405297251      60.7483646410     240.6673193011     231.4007172016     153.8735053025      54.8304782145       0.0000000000      -4.4418776840      -2.4723274400       3.2806626700      -1.6954089500       1.1753032400      -4.8319395500       0.4540020300      -0.3521696840       0.0000000000       0.0000000000
