       7.6046160722     151.8888146662       3.2462239140     212.4360614612       7.5262386047     122.6893253732       1.0000000000      -1.7849123920      -0.4818799500       0.2425870500      -0.1950964500       0.0667988200      -1.4066639200       0.0234705800      -0.0341285220       0.0000000000       0.0000000000
