       8.0082399991     115.6553200214     172.9681700800       3.4729199064     120.2549000313     354.6002299633       0.0000000000      -5.8312155340      -5.4025163800       8.1383491300      -4.0509923500       3.3491209300      -7.5667848300       0.6389250700      -0.9373171040       0.0000000000       0.0000000000
