       5.8808077350      46.0838309622     278.5005483299     172.2825916067     176.3430409295     290.6288363580       0.0000000000      -3.2524612140      -0.7463738200       0.6543555300      -0.4489009700       0.1854707100      -2.9400980800       0.0987870000      -0.0557015940       0.0000000000       0.0000000000
