      10.0147799997      99.0250755777      68.1068309373     180.6445688889      56.3586521466      65.3390206938       1.0000000000      -0.0391269610       0.2784377100       0.0019920900      -0.0230098800       0.0003230800      -0.3003647600       0.0002489500       0.0032458490       0.0000000000       0.0000000000
