       5.3514800021     135.9748698594     120.6572499443     196.8336902435      49.0841899582     109.0448799317       0.0000000000       5.3203065630     -22.1766088800      55.1004050700     -54.2747787300      48.7167652200     -21.4979788300       3.0509755600      -3.5984728570       0.0000000000       0.0000000000
