       5.9379864664     142.1174495374     292.7859873953     348.9165109129     119.7514924999     113.0519769565       0.0000000000      -3.7391090850      -3.2507557300       8.8207019700      -4.5994422900       3.9557331300      -9.0978883800       1.0724363700      -0.6398941650       0.0000000000       0.0000000000
