       9.5145599997     102.8872501527     309.3441999177     192.9077297319      50.8959200127     303.5336099969       0.0000000000      -1.8576934410      -1.2400254200       1.5396141800      -0.6928598100       0.5109014300      -1.9233330800       0.1357377500      -0.1877284910       0.0000000000       0.0000000000
