       6.7151762283     115.4865134659     219.7697781686      86.3982385825      63.8884558444      76.3508123605       0.0000000000      17.6389526690     -22.2815114200      65.7685705800     -36.2957561300      30.8824376900     -17.8604146700       4.2263795000      -6.8007528810       0.0000000000       0.0000000000
