       9.3027499994      78.2362966142     126.2136691503     146.1697835391      78.2362844094     126.2136599454       0.0000000000     195.0724294820    -189.3470455200     477.0217846200    -403.5328898000     203.6033174700     -56.8219354000       7.7853903000     156.3638078120       0.0000000000       0.0000000000
