       4.8661899993     131.6916099946     113.5513799046     359.9999897887     131.6916196933     113.5513798935       1.0000000000      -6.9779181330      -8.9067982500      20.2760468200     -10.5559618100       8.8169123700     -16.5580516800       1.5387589800      -1.5888245630       0.0000000000       0.0000000000
