       6.2441567309      39.3095228495     211.7488144452     279.9371336593     143.3005648068      88.6044573703       1.0000000000      -2.2436424300       0.6130384300       1.0052524200      -0.6073740100       0.3482016700      -3.6684165400       0.0968336800      -0.0311780800       0.0000000000       0.0000000000
