       7.9460132026      78.4185919378     336.0000001421     263.9999996203     113.5231797901     288.0000000889       0.0000000000      14.7963217620     -25.7732703800      64.2938379400     -41.1836337300      35.7819709200     -21.5649130100       5.2721051700      -2.0297751580       0.0000000000       0.0000000000
