       8.7280199992     153.0133799322     290.7521201296     355.2212026677      85.8143102241     107.9329113024       0.0000000000      -1.6346547740      -0.7132325200       0.5689454600      -0.2812038000       0.1472228500      -1.3385126100       0.0500579400      -0.0679320940       0.0000000000       0.0000000000
