       7.1216035910      82.9679383811     207.4760344780     280.7815144878     108.7638887132     271.0739133678       1.0000000000      -0.5042786370      -6.3146048000      18.3798626300     -15.1740118000      13.9877109000     -11.0830778500       1.4060607800      -1.7062184970       0.0000000000       0.0000000000
