      10.1224600004      73.4469908677     225.8399334865      21.4733480326     106.5530128077      45.8399296288       0.0000000000      -1.0575996320      -0.3010071200       1.0263296200      -0.3679528500       0.2295876900      -1.6591649700       0.0897672400      -0.0751592320       0.0000000000       0.0000000000
