       4.0723327513      51.8483724837     163.8192724831      62.9272272199     117.4215066460      18.7386639383      -0.4213784787       0.0000000000       0.0000000000       0.0000000000       0.0000000000       0.0000000000       0.0000000000       0.0000000000      -0.0644626637      -0.0644626527
