       2.6754363783     110.8788992329      10.8056432188      81.9700667483      30.3206447050      35.0260638340      20.8599969385       0.0000000000       0.0000000000       0.0000000000       0.0000000000       0.0000000000       0.0000000000       0.0000000000      -0.0644630306      -0.0644630340
