       4.2162873511      83.3821692962     314.7327755914     332.8018033915      93.8986012761     320.0034067036      -0.3639232771       0.0000000000       0.0000000000       0.0000000000       0.0000000000       0.0000000000       0.0000000000       0.0000000000      -0.0644626424      -0.0644626640
