       4.5187571049     169.6154178583     149.5580029639      93.4024434999     167.0474140942     331.9712982409      -0.3234782221       0.0000000000       0.0000000000       0.0000000000       0.0000000000       0.0000000000       0.0000000000       0.0000000000      -0.0644626427      -0.0644626210
