       3.3726757836      47.3812422252     343.5244308969     311.9385181902      86.4895099135     347.9880327261       0.8445891470       0.0000000000       0.0000000000       0.0000000000       0.0000000000       0.0000000000       0.0000000000       0.0000000000      -0.0644627848      -0.0644627924
