       2.9740003032      57.1575050316     129.4994497334     128.8132677177     125.0832515518     317.3607539645       2.6944063158       0.0000000000       0.0000000000       0.0000000000       0.0000000000       0.0000000000       0.0000000000       0.0000000000      -0.0644628835      -0.0644628910
