       4.1333520918      18.6963813209     111.0190273806      10.0348321409     130.2108002369     113.4425464843      -0.2928460856       0.0000000000       0.0000000000       0.0000000000       0.0000000000       0.0000000000       0.0000000000       0.0000000000      -0.0644626762      -0.0644626945
