       2.5009409074     133.2257753427     135.4658926626     196.2628892820     106.2021696497       4.3888178156      34.1452802851       0.0000000000       0.0000000000       0.0000000000       0.0000000000       0.0000000000       0.0000000000       0.0000000000      -0.0644631047      -0.0644630895
