       5.0290308411     110.9977154964     310.9340137753     207.1987726967     115.1617803166     261.3604927322      -0.1806716800       0.0000000000       0.0000000000       0.0000000000       0.0000000000       0.0000000000       0.0000000000       0.0000000000      -0.0644625870      -0.0644625836
