       3.7890623613      78.4253666367     138.2446282873      95.7529865666     118.7183212104     306.6663743121      -0.4202008796       0.0000000000       0.0000000000       0.0000000000       0.0000000000       0.0000000000       0.0000000000       0.0000000000      -0.0644626985      -0.0644626945
