       3.1876956029      54.9358101679     146.9851600815     160.1879675202     165.5080607440     178.9945988052       3.6731202011       0.0000000000       0.0000000000       0.0000000000       0.0000000000       0.0000000000       0.0000000000       0.0000000000      -0.0644629635      -0.0644628568
