       2.9110790223      77.7518644075      49.9315218647      28.0616335875     103.4689822113       8.3006994545       6.2273082694       0.0000000000       0.0000000000       0.0000000000       0.0000000000       0.0000000000       0.0000000000       0.0000000000      -0.0644629663      -0.0644628939
