       3.4680155921      96.9813925505     324.0811107247     227.0103078782     130.1478178237      16.1158377537       2.0295023672       0.0000000000       0.0000000000       0.0000000000       0.0000000000       0.0000000000       0.0000000000       0.0000000000      -0.0644628248      -0.0644628396
