       3.9336744851      88.1782875588     338.6874561703     188.0414470954      92.4850775954      35.9695738076       0.1163474336       0.0000000000       0.0000000000       0.0000000000       0.0000000000       0.0000000000       0.0000000000       0.0000000000      -0.0644627304      -0.0644627303
