       3.4845261638      72.2024589924      38.3369156507     345.7557157737       1.0479082521      91.0698177326      -0.4637599081       0.0000000000       0.0000000000       0.0000000000       0.0000000000       0.0000000000       0.0000000000       0.0000000000      -0.0644627534      -0.0644627582
