       3.7032917199      62.8805843283      79.2087775528     286.7395150349      92.3499352729     192.2768469078      -0.2822648958       0.0000000000       0.0000000000       0.0000000000       0.0000000000       0.0000000000       0.0000000000       0.0000000000      -0.0644627139      -0.0644627213
