       3.5230047240     130.7900379995     251.4413618727     337.9141085607     101.8610894212     223.2586523597      -0.0421359472       0.0000000000       0.0000000000       0.0000000000       0.0000000000       0.0000000000       0.0000000000       0.0000000000      -0.0644627350      -0.0644627815
