       3.1819686029      50.7599608718      40.9104987222     124.9118614465     106.7723148558     161.2782541796       2.6246012572       0.0000000000       0.0000000000       0.0000000000       0.0000000000       0.0000000000       0.0000000000       0.0000000000      -0.0644628731      -0.0644628194
