       3.7988001746     126.5096478757     335.4249222722       3.0256834334      46.6837527013     122.0963575962       0.8779280377       0.0000000000       0.0000000000       0.0000000000       0.0000000000       0.0000000000       0.0000000000       0.0000000000      -0.0644627856      -0.0644627671
