       3.3349264107      49.7993067488      86.2663910969     129.6659086373     112.8466694010      97.2420987792       0.4545468655       0.0000000000       0.0000000000       0.0000000000       0.0000000000       0.0000000000       0.0000000000       0.0000000000      -0.0644627655      -0.0644628224
