       3.5660953408     122.6301504983      41.4481156893     143.8165175842      65.5491371185     334.6263612263       0.2936905025       0.0000000000       0.0000000000       0.0000000000       0.0000000000       0.0000000000       0.0000000000       0.0000000000      -0.0644627424      -0.0644627501
