       3.8653797958     126.1899509717     320.1268138042     296.0423803533     103.8532208593     324.1642937409      -0.3396573228       0.0000000000       0.0000000000       0.0000000000       0.0000000000       0.0000000000       0.0000000000       0.0000000000      -0.0644627021      -0.0644627595
