       3.3586695624     146.5513819732     149.4552820659     283.5232044847     117.1288212301      81.8846283295       0.2938979165       0.0000000000       0.0000000000       0.0000000000       0.0000000000       0.0000000000       0.0000000000       0.0000000000      -0.0644627662      -0.0644628004
