       3.4148917609      57.0132852331      72.6719122273     230.9111294278      75.6925932169     321.1648391276       0.6566265853       0.0000000000       0.0000000000       0.0000000000       0.0000000000       0.0000000000       0.0000000000       0.0000000000      -0.0644627729      -0.0644627751
