       3.4316944361      72.9487353777      72.1908199676     313.6328958435      83.6558025408     259.4244525633       3.7702564052       0.0000000000       0.0000000000       0.0000000000       0.0000000000       0.0000000000       0.0000000000       0.0000000000      -0.0644628552      -0.0644628681
