       4.6054574629      34.0579489252     275.0306117430     287.3728835148     104.2378318382     344.4849519437      -0.2651190318       0.0000000000       0.0000000000       0.0000000000       0.0000000000       0.0000000000       0.0000000000       0.0000000000      -0.0644625983      -0.0644626078
