       3.1266569673      93.5223932384     320.0394316219     286.1044309469     121.3731372185       3.7360061694       7.0682362601       0.0000000000       0.0000000000       0.0000000000       0.0000000000       0.0000000000       0.0000000000       0.0000000000      -0.0644629032      -0.0644629500
