       4.8673237663       8.6648265178     276.6645069218     236.0122802952      54.6975679790     243.0988461074      -0.2263011755       0.0000000000       0.0000000000       0.0000000000       0.0000000000       0.0000000000       0.0000000000       0.0000000000      -0.0644626145      -0.0644626115
