       2.7375516598     131.4980937767     232.0670532648     231.1395312691       9.0950742904     224.4182429442      16.3186813371       0.0000000000       0.0000000000       0.0000000000       0.0000000000       0.0000000000       0.0000000000       0.0000000000      -0.0644629634      -0.0644631031
