       2.9678927844      61.0100368034     112.9865441117     248.2129391367     102.8637431272     297.9109379847       6.4625457132       0.0000000000       0.0000000000       0.0000000000       0.0000000000       0.0000000000       0.0000000000       0.0000000000      -0.0644629170      -0.0644628896
