       4.3194174190     116.5001689041     146.8464667359      72.2448842511      87.9886196025     278.0152176466      -0.3350869367       0.0000000000       0.0000000000       0.0000000000       0.0000000000       0.0000000000       0.0000000000       0.0000000000      -0.0644626658      -0.0644626483
