       2.9981952554      53.5526114272     322.9666241688     132.8925798907     110.1034126189     349.5928148718       5.1835905034       0.0000000000       0.0000000000       0.0000000000       0.0000000000       0.0000000000       0.0000000000       0.0000000000      -0.0644628611      -0.0644629078
