       3.7745278415     107.8719777937     275.0538445355     346.4885343292     106.0317626326      33.0742276326      -0.1737970410       0.0000000000       0.0000000000       0.0000000000       0.0000000000       0.0000000000       0.0000000000       0.0000000000      -0.0644627268      -0.0644627078
