       4.1884497126      80.5123965683     304.1885337681       6.3805357843     162.9256423321     251.3105964667      -0.3305863580       0.0000000000       0.0000000000       0.0000000000       0.0000000000       0.0000000000       0.0000000000       0.0000000000      -0.0644626810      -0.0644626720
