       3.5290134501      94.0232146951      65.3950393193     354.1800227879     126.7584918793     246.6008417686       0.3677994901       0.0000000000       0.0000000000       0.0000000000       0.0000000000       0.0000000000       0.0000000000       0.0000000000      -0.0644627563      -0.0644627919
