       2.6954897999      74.0962245861     153.7325836845     307.7656327933     119.4272609640     332.6381807561       7.5956772297       0.0000000000       0.0000000000       0.0000000000       0.0000000000       0.0000000000       0.0000000000       0.0000000000      -0.0644629915      -0.0644629855
