       3.6183877095      20.6892185096     139.6469582943     151.6065294512      50.4089356947     265.8361854572       2.0743803035       0.0000000000       0.0000000000       0.0000000000       0.0000000000       0.0000000000       0.0000000000       0.0000000000      -0.0644628122      -0.0644628123
