       4.9933710299      27.3372523831      46.6671338895      21.6632725119      86.7730912306     211.2140866896      -0.1768634237       0.0000000000       0.0000000000       0.0000000000       0.0000000000       0.0000000000       0.0000000000       0.0000000000      -0.0644625789      -0.0644625781
