       3.5747205838      37.9491255828      91.5333965329     356.6174191388      55.6728696445     159.8323198342       2.2351672246       0.0000000000       0.0000000000       0.0000000000       0.0000000000       0.0000000000       0.0000000000       0.0000000000      -0.0644628116      -0.0644628306
