       4.6733852518     116.0226674848      79.5892162272      69.9488083020     176.5915010538     240.2376954165      -0.1896662676       0.0000000000       0.0000000000       0.0000000000       0.0000000000       0.0000000000       0.0000000000       0.0000000000      -0.0644626618      -0.0644626631
