       3.9259362362     144.8203155878      35.1642207377      36.0917449127     131.0281744939     224.3060231702      -0.3731484034       0.0000000000       0.0000000000       0.0000000000       0.0000000000       0.0000000000       0.0000000000       0.0000000000      -0.0644626782      -0.0644626771
