       4.7378237067     148.7771462656     144.1564185234     336.9783002153      85.9310984914     322.4154885324      -0.2029271058       0.0000000000       0.0000000000       0.0000000000       0.0000000000       0.0000000000       0.0000000000       0.0000000000      -0.0644625815      -0.0644625830
