       3.7367403361      55.2514955650      61.4376189663     226.8622273036      46.7576301345      13.8029275896      -0.1394717312       0.0000000000       0.0000000000       0.0000000000       0.0000000000       0.0000000000       0.0000000000       0.0000000000      -0.0644627536      -0.0644627160
