       3.0594433185      88.0712798221     356.8507696559     281.8941376177      50.7025006443     216.5507268006       8.1641676868       0.0000000000       0.0000000000       0.0000000000       0.0000000000       0.0000000000       0.0000000000       0.0000000000      -0.0644628979      -0.0644629024
