       4.2256935313      40.6477472841     294.3039973713     356.8159557550      69.2499127410     205.1962750972      -0.3822477437       0.0000000000       0.0000000000       0.0000000000       0.0000000000       0.0000000000       0.0000000000       0.0000000000      -0.0644626383      -0.0644626456
