       3.6249819452      58.4969994188     279.8181370946     179.1377362361     108.0148905897      44.0450161434      -0.1013318414       0.0000000000       0.0000000000       0.0000000000       0.0000000000       0.0000000000       0.0000000000       0.0000000000      -0.0644627590      -0.0644627194
