       4.0312783207      62.2589099148     269.1869880220     262.8449492551       0.7239324994     176.2228030983      -0.4288898348       0.0000000000       0.0000000000       0.0000000000       0.0000000000       0.0000000000       0.0000000000       0.0000000000      -0.0644626533      -0.0644626555
