       3.3461395828     136.9537953579     143.2201925915     258.4904518592     166.9520647473     108.3587297287       3.6886166225       0.0000000000       0.0000000000       0.0000000000       0.0000000000       0.0000000000       0.0000000000       0.0000000000      -0.0644628793      -0.0644628657
