       2.4903522044      33.3196405429     285.9964621392      62.0995910272     127.1110059699     230.1128121277      43.7888134696       0.0000000000       0.0000000000       0.0000000000       0.0000000000       0.0000000000       0.0000000000       0.0000000000      -0.0644630517      -0.0644631617
