       3.1614813907     131.4482919923     164.1997527317     275.1513220500     112.1525757304     163.0005440745       5.6201345744       0.0000000000       0.0000000000       0.0000000000       0.0000000000       0.0000000000       0.0000000000       0.0000000000      -0.0644628566      -0.0644628586
