       3.2174061075     115.5628971448      61.8582498738      89.7207522328     141.6808250440     237.1120301236       8.5147603943       0.0000000000       0.0000000000       0.0000000000       0.0000000000       0.0000000000       0.0000000000       0.0000000000      -0.0644629194      -0.0644629122
