       4.3378390220     178.6915326421     103.4760877363     102.1251321742     174.4416887286     279.3910351111      -0.3924893363       0.0000000000       0.0000000000       0.0000000000       0.0000000000       0.0000000000       0.0000000000       0.0000000000      -0.0644626793      -0.0644626450
