       3.8427872787      77.1280389429     273.4556390469      84.1876384871      10.8952246117     358.8208626914      -0.4975990491       0.0000000000       0.0000000000       0.0000000000       0.0000000000       0.0000000000       0.0000000000       0.0000000000      -0.0644626860      -0.0644626832
