       3.1309684503     104.0947824259     137.8867122905     231.0592996888      95.9851432541     201.1844635665       1.6619331545       0.0000000000       0.0000000000       0.0000000000       0.0000000000       0.0000000000       0.0000000000       0.0000000000      -0.0644628248      -0.0644628724
