       2.9925216535     130.5213315734     153.0708362586     284.6992891465      85.4110302024      24.3444560232      13.6807378147       0.0000000000       0.0000000000       0.0000000000       0.0000000000       0.0000000000       0.0000000000       0.0000000000      -0.0644630014      -0.0644629497
