       3.9965056197     163.8950682221      31.1520303450     115.5583333887     107.0168725050     213.9925594578      -0.4431066501       0.0000000000       0.0000000000       0.0000000000       0.0000000000       0.0000000000       0.0000000000       0.0000000000      -0.0644626576      -0.0644626627
