       4.8538217341      47.5856903207     341.8048778611      11.8508407694     135.7963015272      87.3494005877      -0.1813941822       0.0000000000       0.0000000000       0.0000000000       0.0000000000       0.0000000000       0.0000000000       0.0000000000      -0.0644625782      -0.0644625830
