       3.4594087827      49.4131317467      54.9259187974     346.6914468020     142.3986067937     144.1372481043       1.2291958173       0.0000000000       0.0000000000       0.0000000000       0.0000000000       0.0000000000       0.0000000000       0.0000000000      -0.0644627974      -0.0644627723
