       2.8432867194     141.1098779626     169.6590613299     311.4382146077      20.1083305307     341.5353046127       9.2674440848       0.0000000000       0.0000000000       0.0000000000       0.0000000000       0.0000000000       0.0000000000       0.0000000000      -0.0644629139      -0.0644629729
