       2.8541699365      68.9841063664     158.3651326695      21.6647309631     128.7592664713     150.8276534734       6.7580741437       0.0000000000       0.0000000000       0.0000000000       0.0000000000       0.0000000000       0.0000000000       0.0000000000      -0.0644629724      -0.0644628917
