       2.9445818816     105.5608090908     138.3800335798     318.6550613519      67.2892410779     126.7611281270      17.9627614727       0.0000000000       0.0000000000       0.0000000000       0.0000000000       0.0000000000       0.0000000000       0.0000000000      -0.0644629872      -0.0644629814
