       2.7685572740      60.3739430842      64.7482328041      90.1652636864      90.8259986979     123.6222050096      16.2544995271       0.0000000000       0.0000000000       0.0000000000       0.0000000000       0.0000000000       0.0000000000       0.0000000000      -0.0644630379      -0.0644629619
