       2.7103968043     145.3001874904     209.4082199967     252.2585780183      48.7938905615     272.8143615225      35.0051343303       0.0000000000       0.0000000000       0.0000000000       0.0000000000       0.0000000000       0.0000000000       0.0000000000      -0.0644630890      -0.0644630426
