       4.3387443752      15.8296192881     328.8068173586     209.6109978561      22.2272611137     347.9921730512      -0.3781777863       0.0000000000       0.0000000000       0.0000000000       0.0000000000       0.0000000000       0.0000000000       0.0000000000      -0.0644626389      -0.0644626652
