       3.3769378865      62.5877673650     346.5415109769      76.2260993194     122.5724735370     138.6809142436       0.5774765548       0.0000000000       0.0000000000       0.0000000000       0.0000000000       0.0000000000       0.0000000000       0.0000000000      -0.0644627847      -0.0644627857
