       4.4100469564      11.1728656269      32.2443945430      98.5383296459      99.0655897116      68.4477012502      -0.3510874938       0.0000000000       0.0000000000       0.0000000000       0.0000000000       0.0000000000       0.0000000000       0.0000000000      -0.0644626400      -0.0644626558
