       3.2431956628      32.3920904565      55.4672578325     328.8731017868      91.3178200535     312.6195874124       2.5967581991       0.0000000000       0.0000000000       0.0000000000       0.0000000000       0.0000000000       0.0000000000       0.0000000000      -0.0644628134      -0.0644628638
