       4.2852570774      58.3351956801     181.3202410807     358.1880892841     109.5623971039     224.1251690176      -0.3388820501       0.0000000000       0.0000000000       0.0000000000       0.0000000000       0.0000000000       0.0000000000       0.0000000000      -0.0644626225      -0.0644626298
