       2.9004315431     135.7369698140     283.9133130259     136.7993307989     128.8824645628     273.0765047164       8.8887887930       0.0000000000       0.0000000000       0.0000000000       0.0000000000       0.0000000000       0.0000000000       0.0000000000      -0.0644629237      -0.0644629280
