       3.6715474143      40.9844614223     222.8268827406     159.9460166671     107.7119611757     284.0616928345       0.3426198077       0.0000000000       0.0000000000       0.0000000000       0.0000000000       0.0000000000       0.0000000000       0.0000000000      -0.0644627383      -0.0644627381
