       3.5117770527     178.5138860699      40.4251717572      92.6525127494      95.1100876947     217.7235584457      -0.4293795956       0.0000000000       0.0000000000       0.0000000000       0.0000000000       0.0000000000       0.0000000000       0.0000000000      -0.0644627590      -0.0644627432
