       2.4020901232      61.0565610692     138.4955762756      71.4621417012      23.0847427524      60.2393123695      30.2867647589       0.0000000000       0.0000000000       0.0000000000       0.0000000000       0.0000000000       0.0000000000       0.0000000000      -0.0644631602      -0.0644631031
