       3.5553625193      75.1591405388     268.0942909060      86.2911455788       2.3935402876     351.1069986408      -0.5199609737       0.0000000000       0.0000000000       0.0000000000       0.0000000000       0.0000000000       0.0000000000       0.0000000000      -0.0644627391      -0.0644627404
