       4.3311987356     164.2047762755     241.8549350825     145.3331152319      89.8024976643      96.8035875951      -0.3202969162       0.0000000000       0.0000000000       0.0000000000       0.0000000000       0.0000000000       0.0000000000       0.0000000000      -0.0644626205      -0.0644626180
