       3.4328237307      32.9433588663      99.1311665932     148.2284580541     124.9317765930      90.2758632384       0.2763618325       0.0000000000       0.0000000000       0.0000000000       0.0000000000       0.0000000000       0.0000000000       0.0000000000      -0.0644627531      -0.0644628231
