       2.6542636503      85.5080942273     151.5457982018      95.0300227467      93.1430138396     209.9595847943      10.8150013332       0.0000000000       0.0000000000       0.0000000000       0.0000000000       0.0000000000       0.0000000000       0.0000000000      -0.0644629984      -0.0644629951
