       2.9438702729     106.7904146548     117.1365138873      82.0307210519     135.1053717228     136.0675589394      12.1700355771       0.0000000000       0.0000000000       0.0000000000       0.0000000000       0.0000000000       0.0000000000       0.0000000000      -0.0644629360      -0.0644629877
