       3.2519042101     144.4206735713     293.1611912133      81.6572063327      90.9850281406     301.7709245768       1.6269510860       0.0000000000       0.0000000000       0.0000000000       0.0000000000       0.0000000000       0.0000000000       0.0000000000      -0.0644628385      -0.0644628225
