       4.4764401920      92.9709852274     352.3075684095      61.0870961437      44.6930192795     255.2744381960      -0.3237061683       0.0000000000       0.0000000000       0.0000000000       0.0000000000       0.0000000000       0.0000000000       0.0000000000      -0.0644626324      -0.0644626330
