       4.6398817926      97.6292911612      28.7256300457     296.5401242701      54.7870730831     210.3911909662      -0.2409052045       0.0000000000       0.0000000000       0.0000000000       0.0000000000       0.0000000000       0.0000000000       0.0000000000      -0.0644625953      -0.0644625897
