       4.5435103064     143.5191426158     253.9924284021     109.4699731585      77.6975339238      28.0287456803      -0.3020771698       0.0000000000       0.0000000000       0.0000000000       0.0000000000       0.0000000000       0.0000000000       0.0000000000      -0.0644626430      -0.0644626331
