       3.0396357755      53.6994441466     258.9661823828      70.7888953095     119.3404283321     138.3863919242       3.5124452055       0.0000000000       0.0000000000       0.0000000000       0.0000000000       0.0000000000       0.0000000000       0.0000000000      -0.0644628955      -0.0644628530
