       2.9494758988      54.1715567002     310.8406799387     241.9357051163      23.5592870169     201.7864084578       5.3976448772       0.0000000000       0.0000000000       0.0000000000       0.0000000000       0.0000000000       0.0000000000       0.0000000000      -0.0644628853      -0.0644629159
