       3.6354527187      61.3772505324     164.8142069435      83.3529899665     124.0022679972     114.4470049664      -0.4031080761       0.0000000000       0.0000000000       0.0000000000       0.0000000000       0.0000000000       0.0000000000       0.0000000000      -0.0644627341      -0.0644627220
