       3.3971274968      74.8104441898      27.8601817787     169.1365588987       5.8648723586     273.4970906104      -0.3702503878       0.0000000000       0.0000000000       0.0000000000       0.0000000000       0.0000000000       0.0000000000       0.0000000000      -0.0644627766      -0.0644627757
