       4.5190756914      90.5729717039     139.8295480039     279.8537558259     115.2783694386     332.0369614023      -0.2523681291       0.0000000000       0.0000000000       0.0000000000       0.0000000000       0.0000000000       0.0000000000       0.0000000000      -0.0644625964      -0.0644626038
