       5.0132843421      97.6852919596      72.5973602248     189.9297897071      66.1265715705     165.1944736212      -0.1927680408       0.0000000000       0.0000000000       0.0000000000       0.0000000000       0.0000000000       0.0000000000       0.0000000000      -0.0644626051      -0.0644626058
