       3.1760203740      31.8940265083      82.5932051150      12.0174269106     107.4979049844     304.2034704877       3.1355605352       0.0000000000       0.0000000000       0.0000000000       0.0000000000       0.0000000000       0.0000000000       0.0000000000      -0.0644628225      -0.0644628913
