       3.6345244296     114.7613360352      86.0546544914     108.7689855161      94.0884037608     164.8976100685       2.3333843741       0.0000000000       0.0000000000       0.0000000000       0.0000000000       0.0000000000       0.0000000000       0.0000000000      -0.0644628313      -0.0644628210
