       3.1023252298     101.8866684764     277.1719463540     210.3587333860     113.1897301855      13.5490730925       3.7523744444       0.0000000000       0.0000000000       0.0000000000       0.0000000000       0.0000000000       0.0000000000       0.0000000000      -0.0644628705      -0.0644628484
