       3.3365662403      59.6037598693     258.6260869419     101.5842464517      11.7077350561     352.9829884725      -0.1316394457       0.0000000000       0.0000000000       0.0000000000       0.0000000000       0.0000000000       0.0000000000       0.0000000000      -0.0644627904      -0.0644627954
