       3.0290810555     148.1370838252     239.4183928476      51.6171533370      98.9557072354     295.9245520800       4.4404148805       0.0000000000       0.0000000000       0.0000000000       0.0000000000       0.0000000000       0.0000000000       0.0000000000      -0.0644629079      -0.0644628842
