       3.3669956481     122.7656373365      23.5371270034     280.0555142782     128.1655002516     260.4374600841       1.5298096214       0.0000000000       0.0000000000       0.0000000000       0.0000000000       0.0000000000       0.0000000000       0.0000000000      -0.0644627858      -0.0644627883
