       2.4113664925      65.4044420997     115.8797835790     195.7977556637      11.7091432961     143.2645415782      38.6033018521       0.0000000000       0.0000000000       0.0000000000       0.0000000000       0.0000000000       0.0000000000       0.0000000000      -0.0644630587      -0.0644631072
