       3.4704380359      71.0621701338     100.4996127554       5.3211768401     147.3727393534     190.8323282659       0.8756414145       0.0000000000       0.0000000000       0.0000000000       0.0000000000       0.0000000000       0.0000000000       0.0000000000      -0.0644627883      -0.0644627799
