       3.2671431910      55.8872785817     147.3293419941      23.6173885909      99.1321524312      60.0329525875       0.6001199909       0.0000000000       0.0000000000       0.0000000000       0.0000000000       0.0000000000       0.0000000000       0.0000000000      -0.0644628421      -0.0644627943
