       2.7797885451      35.9624116398     112.3813638056     286.0450520338      96.8587378667     338.2135299352      11.2457104641       0.0000000000       0.0000000000       0.0000000000       0.0000000000       0.0000000000       0.0000000000       0.0000000000      -0.0644629287      -0.0644630454
