       3.4066385592      78.8352702452     264.0245528561      99.9753835596       9.1501277474     351.4671193576      -0.3595733537       0.0000000000       0.0000000000       0.0000000000       0.0000000000       0.0000000000       0.0000000000       0.0000000000      -0.0644627744      -0.0644627759
