       2.8090187228      51.1707670720      53.1878704210     162.6453273859      80.6590958708      37.7824920283      23.2330414244       0.0000000000       0.0000000000       0.0000000000       0.0000000000       0.0000000000       0.0000000000       0.0000000000      -0.0644630993      -0.0644630025
