       3.4017814290     160.2171842894     120.6859353642     279.0266202005      80.2237214939      30.2675898246       1.7057500148       0.0000000000       0.0000000000       0.0000000000       0.0000000000       0.0000000000       0.0000000000       0.0000000000      -0.0644628888      -0.0644628240
