 Entering Gaussian System, Link 0=/data/szalewicgrp/connornm/opt/Gaussian/g09-M05-par/g09/g09
 AtFile(1): blind-aug.gbs
 Initial command:
 /data/szalewicgrp/connornm/opt/Gaussian/g09-M05-par/g09/l1.exe "/scratch/local/Gau-4089.inp" -scrdir="/scratch/local/"
 Entering Link 1 = /data/szalewicgrp/connornm/opt/Gaussian/g09-M05-par/g09/l1.exe PID=      4090.
  
 Copyright (c) 1988,1990,1992,1993,1995,1998,2003,2009,2013,
            Gaussian, Inc.  All Rights Reserved.
  
 This is part of the Gaussian(R) 09 program.  It is based on
 the Gaussian(R) 03 system (copyright 2003, Gaussian, Inc.),
 the Gaussian(R) 98 system (copyright 1998, Gaussian, Inc.),
 the Gaussian(R) 94 system (copyright 1995, Gaussian, Inc.),
 the Gaussian 92(TM) system (copyright 1992, Gaussian, Inc.),
 the Gaussian 90(TM) system (copyright 1990, Gaussian, Inc.),
 the Gaussian 88(TM) system (copyright 1988, Gaussian, Inc.),
 the Gaussian 86(TM) system (copyright 1986, Carnegie Mellon
 University), and the Gaussian 82(TM) system (copyright 1983,
 Carnegie Mellon University). Gaussian is a federally registered
 trademark of Gaussian, Inc.
  
 This software contains proprietary and confidential information,
 including trade secrets, belonging to Gaussian, Inc.
  
 This software is provided under written license and may be
 used, copied, transmitted, or stored only in accord with that
 written license.
  
 The following legend is applicable only to US Government
 contracts under FAR:
  
                    RESTRICTED RIGHTS LEGEND
  
 Use, reproduction and disclosure by the US Government is
 subject to restrictions as set forth in subparagraphs (a)
 and (c) of the Commercial Computer Software - Restricted
 Rights clause in FAR 52.227-19.
  
 Gaussian, Inc.
 340 Quinnipiac St., Bldg. 40, Wallingford CT 06492
  
  
 ---------------------------------------------------------------
 Warning -- This program may not be used in any manner that
 competes with the business of Gaussian, Inc. or will provide
 assistance to any competitor of Gaussian, Inc.  The licensee
 of this program is prohibited from giving any competitor of
 Gaussian, Inc. access to this program.  By using this program,
 the user acknowledges that Gaussian, Inc. is engaged in the
 business of creating and licensing software in the field of
 computational chemistry and represents and warrants to the
 licensee that it is not a competitor of Gaussian, Inc. and that
 it will not use this program in any manner prohibited above.
 ---------------------------------------------------------------
  

 Cite this work as:
 Gaussian 09, Revision D.01,
 M. J. Frisch, G. W. Trucks, H. B. Schlegel, G. E. Scuseria, 
 M. A. Robb, J. R. Cheeseman, G. Scalmani, V. Barone, B. Mennucci, 
 G. A. Petersson, H. Nakatsuji, M. Caricato, X. Li, H. P. Hratchian, 
 A. F. Izmaylov, J. Bloino, G. Zheng, J. L. Sonnenberg, M. Hada, 
 M. Ehara, K. Toyota, R. Fukuda, J. Hasegawa, M. Ishida, T. Nakajima, 
 Y. Honda, O. Kitao, H. Nakai, T. Vreven, J. A. Montgomery, Jr., 
 J. E. Peralta, F. Ogliaro, M. Bearpark, J. J. Heyd, E. Brothers, 
 K. N. Kudin, V. N. Staroverov, T. Keith, R. Kobayashi, J. Normand, 
 K. Raghavachari, A. Rendell, J. C. Burant, S. S. Iyengar, J. Tomasi, 
 M. Cossi, N. Rega, J. M. Millam, M. Klene, J. E. Knox, J. B. Cross, 
 V. Bakken, C. Adamo, J. Jaramillo, R. Gomperts, R. E. Stratmann, 
 O. Yazyev, A. J. Austin, R. Cammi, C. Pomelli, J. W. Ochterski, 
 R. L. Martin, K. Morokuma, V. G. Zakrzewski, G. A. Voth, 
 P. Salvador, J. J. Dannenberg, S. Dapprich, A. D. Daniels, 
 O. Farkas, J. B. Foresman, J. V. Ortiz, J. Cioslowski, 
 and D. J. Fox, Gaussian, Inc., Wallingford CT, 2013.
 
 ******************************************
 Gaussian 09:  AS64L-G09RevD.01 24-Apr-2013
                19-Jan-2019 
 ******************************************
 %Chk=BLIND01597
 %Mem=1GB
 %NProcShared=48
 Will use up to   48 processors via shared memory.
 ---------------------------------------------
 #T M05/Gen test Massage SCF=(fermi,maxcyc=60)
 ---------------------------------------------
 -------
 M05 opt
 -------
 Symbolic Z-matrix:
 Charge =  0 Multiplicity = 1
 6                    -0.47025   0.84548  -0.32425 
 6                    -0.57865  -0.25087  -1.22542 
 16                   -0.34283   0.71056   1.42334 
 16                   -0.57032  -1.94973  -0.72702 
 6                     0.55624  -0.81128   1.56415 
 6                     0.46283  -1.86492   0.71048 
 6                    -0.55237   2.03197  -1.02483 
 7                    -0.72666   0.02688  -2.49774 
 16                   -0.77971   1.67751  -2.70635 
 6                     1.38928  -0.86411   2.71929 
 7                     2.03465  -0.86958   3.68606 
 6                     1.19687  -3.06564   0.9416 
 7                     1.7532   -4.07278   1.10618 
 6                    -0.50227   3.3549   -0.52233 
 7                    -0.47246   4.44734  -0.12637 
 6                    -0.47116   0.84428   7.37396 
 6                    -0.57011  -0.25119   6.47065 
 16                   -0.35418   0.7074    9.12213 
 16                   -0.55897  -1.9507    6.96679 
 6                     0.54928  -0.81149   9.26649 
 6                     0.46488  -1.86428   8.41084 
 6                    -0.55303   2.03144   6.67449 
 7                    -0.71113   0.02779   5.19781 
 16                   -0.76862   1.67851   4.9911 
 6                     1.37526  -0.86302   10.42675 
 7                     2.0146   -0.86758   11.39753 
 6                     1.20162  -3.06276   8.64492 
 7                     1.76043  -4.06818   8.81161 
 6                    -0.51068   3.35385   7.17907 
 7                    -0.48714   4.44584   7.5767 
 
                    Distance matrix (angstroms):
                    1          2          3          4          5
     1  C    0.000000
     2  C    1.423315   0.000000
     3  S    1.757418   2.827694   0.000000
     4  S    2.825849   1.770477   3.428253   0.000000
     5  C    2.713774   3.063280   1.773167   2.795470   0.000000
     6  C    3.047557   2.727187   2.791121   1.772288   1.359281
     7  C    1.380327   2.291783   2.789903   3.992857   4.001979
     8  N    2.336642   1.310672   3.998700   2.658358   4.341342
     9  S    2.542129   2.439721   4.263822   4.137445   5.120151
    10  C    3.955208   4.450782   2.675676   4.110426   1.425163
    11  N    5.029770   5.597745   3.642685   5.237162   2.586817
    12  C    4.436049   3.971317   4.106384   2.674416   2.424897
    13  N    5.583831   5.047859   5.232040   3.642352   3.504263
    14  C    2.517432   3.674472   3.286888   5.309014   4.778168
    15  N    3.607292   4.826214   4.047461   6.425950   5.618639
    16  C    7.698211   8.669496   5.953505   8.569843   6.127833
    17  C    6.883560   7.696073   5.143150   7.395372   5.065189
    18  S    9.448102  10.394245   7.698798  10.203568   7.762624
    19  S    7.809339   8.366723   6.152954   7.693820   5.632987
    20  C    9.786083  10.567246   8.039127  10.120249   7.702351
    21  C    9.193423   9.825955   7.490480   9.196704   6.927793
    22  C    7.098994   8.223021   5.418808   8.404306   5.952067
    23  N    5.587465   6.430627   3.853364   6.247717   3.938747
    24  S    5.388504   6.511813   3.721180   6.774983   4.438280
    25  C   11.041235  11.830697   9.299964  11.374214   8.900514
    26  N   12.104100  12.901319  10.369786  12.444179   9.941097
    27  C    9.925500  10.416315   8.293038   9.602702   7.458086
    28  N   10.610561  10.990226   9.046911  10.045184   8.036371
    29  C    7.911605   9.145168   6.335904   9.520393   7.072059
    30  N    8.682620   9.977206   7.199791  10.481505   8.054606
                    6          7          8          9         10
     6  C    0.000000
     7  C    4.384939   0.000000
     8  N    3.909794   2.494036   0.000000
     9  S    5.076167   1.733444   1.664607   0.000000
    10  C    2.428007   5.116215   5.699860   6.371958   0.000000
    11  N    3.509330   6.107712   6.831389   7.434461   1.162408
    12  C    1.426163   5.736923   5.009263   6.301738   2.836178
    13  N    2.587713   6.864751   5.995430   7.349618   3.609722
    14  C    5.449573   1.416040   3.876636   2.767765   5.646781
    15  N    6.435818   2.578302   5.022796   3.797715   6.306769
    16  C    7.253557   8.482736   9.908777  10.119389   5.295828
    17  C    6.070476   7.835520   8.974068   9.379827   4.276399
    18  S    8.834037  10.234964  11.645736  11.875816   6.819508
    19  S    6.339785   8.929034   9.670381  10.333548   4.797669
    20  C    8.621055  10.733602  11.862887  12.300824   6.601083
    21  C    7.700356  10.259011  11.135227  11.733928   5.852229
    22  C    7.196042   7.699317   9.390323   9.390246   5.272607
    23  N    5.009655   6.539351   7.695560   8.074770   3.369013
    24  S    5.691762   6.030185   7.668925   7.697458   4.035172
    25  C    9.810310  11.968095  13.124494  13.549036   7.707473
    26  N   10.845078  13.011983  14.191303  14.601541   8.700745
    27  C    8.058285  11.069632  11.722756  12.459820   6.323163
    28  N    8.495082  11.803237  12.282368  13.119782   6.893493
    29  C    8.368157   8.309823  10.235044  10.030158   6.425787
    30  N    9.374067   8.934052  11.003584  10.653180   7.437135
                   11         12         13         14         15
    11  N    0.000000
    12  C    3.613393   0.000000
    13  N    4.122555   1.162293   0.000000
    14  C    6.480188   6.800997   7.931563   0.000000
    15  N    7.006418   7.769948   8.891861   1.162367   0.000000
    16  C    4.776712   7.710059   8.271053   8.285867   8.320871
    17  C    3.862782   6.450866   6.984254   7.868316   8.099779
    18  S    6.143632   9.141258   9.567999  10.002341   9.976762
    19  S    4.319590   6.374084   6.648016   9.178213   9.552761
    20  C    5.775026   8.648952   8.869957  10.690451  10.813191
    21  C    5.077115   7.600559   7.739199  10.391187  10.658284
    22  C    4.903334   7.868185   8.578242   7.317675   7.217665
    23  N    3.260360   5.596875   6.295155   6.620672   6.923598
    24  S    4.006776   6.539769   7.384414   5.768814   5.826030
    25  C    6.772862   9.739163   9.865004  11.882692  11.957518
    26  N    7.711494  10.715716  10.782090  12.893686  12.931901
    27  C    5.485820   7.703318   7.626069  11.319372  11.667889
    28  N    6.047933   7.953597   7.705433  12.138556  12.545414
    29  C    6.042947   9.112169   9.856978   7.701414   7.386926
    30  N    7.053381  10.162809  10.929482   8.172189   7.703079
                   16         17         18         19         20
    16  C    0.000000
    17  C    1.423315   0.000000
    18  S    1.757418   2.827694   0.000000
    19  S    2.825849   1.770477   3.428253   0.000000
    20  C    2.713774   3.063280   1.773167   2.795470   0.000000
    21  C    3.047557   2.727187   2.791121   1.772288   1.359281
    22  C    1.380327   2.291783   2.789903   3.992857   4.001979
    23  N    2.336642   1.310672   3.998700   2.658358   4.341342
    24  S    2.542129   2.439721   4.263822   4.137445   5.120151
    25  C    3.955208   4.450782   2.675676   4.110426   1.425163
    26  N    5.029770   5.597745   3.642685   5.237162   2.586817
    27  C    4.436049   3.971317   4.106384   2.674416   2.424897
    28  N    5.583831   5.047859   5.232040   3.642352   3.504263
    29  C    2.517432   3.674472   3.286888   5.309014   4.778168
    30  N    3.607292   4.826214   4.047461   6.425950   5.618639
                   21         22         23         24         25
    21  C    0.000000
    22  C    4.384939   0.000000
    23  N    3.909794   2.494036   0.000000
    24  S    5.076167   1.733444   1.664607   0.000000
    25  C    2.428007   5.116215   5.699860   6.371958   0.000000
    26  N    3.509330   6.107712   6.831389   7.434461   1.162408
    27  C    1.426163   5.736923   5.009263   6.301738   2.836178
    28  N    2.587713   6.864751   5.995430   7.349618   3.609722
    29  C    5.449573   1.416040   3.876636   2.767765   5.646781
    30  N    6.435818   2.578302   5.022796   3.797715   6.306769
                   26         27         28         29         30
    26  N    0.000000
    27  C    3.613393   0.000000
    28  N    4.122555   1.162293   0.000000
    29  C    6.480188   6.800997   7.931563   0.000000
    30  N    7.006418   7.769948   8.891861   1.162367   0.000000
 Symmetry turned off by external request.
 Framework group  C1[X(C16N8S6)]
 Deg. of freedom    84
 Rotational constants (GHZ):      0.2008290      0.0545887      0.0446444
   714 basis functions,  1518 primitive gaussians,   774 cartesian basis functions
   124 alpha electrons      124 beta electrons
       nuclear repulsion energy      3398.6206375886 Hartrees.
 IMHF & INEx in M05                  599485                  400514
 NAtoms=   30 NActive=   30 NUniq=   30 SFac= 1.00D+00 NAtFMM=   60 NAOKFM=F Big=F
 PrsmSu:  requested number of processors reduced to:  26 ShMem   1 Linda.
 ExpMin= 3.99D-02 ExpMax= 1.11D+05 ExpMxC= 1.07D+03 IAcc=3 IRadAn=         5 AccDes= 0.00D+00
 Harris functional with IExCor= 1009 and IRadAn=       5 diagonalized for initial guess.
 HarFok:  IExCor= 1009 AccDes= 0.00D+00 IRadAn=         5 IDoV= 1 UseB2=F ITyADJ=14
 ICtDFT=  3500011 ScaDFX=  1.000000  1.000000  1.000000  1.000000
 FoFCou: FMM=F IPFlag=           0 FMFlag=      100000 FMFlg1=           0
         NFxFlg=           0 DoJE=T BraDBF=F KetDBF=T FulRan=T
         wScrn=  0.000000 ICntrl=     500 IOpCl=  0 I1Cent=   200000004 NGrid=           0
         NMat0=    1 NMatS0=      1 NMatT0=    0 NMatD0=    1 NMtDS0=    0 NMtDT0=    0
 Symmetry not used in FoFCou.
 Restarting incremental Fock formation.
 SCF Done:  E(RM05) =  -3448.35727718     A.U. after   21 cycles
            NFock= 21  Conv=0.24D-08     -V/T= 2.0058

 **********************************************************************

            Population analysis using the SCF density.

 **********************************************************************

 Alpha  occ. eigenvalues --  -90.55208 -90.54595 -90.52529 -90.51938 -90.51698
 Alpha  occ. eigenvalues --  -90.51211 -15.08313 -15.07722 -15.05152 -15.04603
 Alpha  occ. eigenvalues --  -15.04562 -15.04447 -15.03830 -15.03799 -10.89733
 Alpha  occ. eigenvalues --  -10.89591 -10.89487 -10.88934 -10.88875 -10.88796
 Alpha  occ. eigenvalues --  -10.88548 -10.87907 -10.87240 -10.86551 -10.84764
 Alpha  occ. eigenvalues --  -10.84109 -10.84056 -10.84012 -10.83300 -10.83231
 Alpha  occ. eigenvalues --   -8.57811  -8.57220  -8.55458  -8.54871  -8.54607
 Alpha  occ. eigenvalues --   -8.54144  -6.40532  -6.40182  -6.39945  -6.39873
 Alpha  occ. eigenvalues --   -6.39595  -6.39280  -6.38204  -6.37892  -6.37609
 Alpha  occ. eigenvalues --   -6.37434  -6.37353  -6.37300  -6.37039  -6.36883
 Alpha  occ. eigenvalues --   -6.36840  -6.36579  -6.36574  -6.36113  -1.21041
 Alpha  occ. eigenvalues --   -1.20461  -1.13355  -1.12666  -1.12562  -1.11958
 Alpha  occ. eigenvalues --   -1.11776  -1.10982  -1.08163  -1.07384  -1.04329
 Alpha  occ. eigenvalues --   -1.03635  -0.99334  -0.98669  -0.97952  -0.97196
 Alpha  occ. eigenvalues --   -0.88566  -0.87869  -0.85074  -0.84349  -0.82781
 Alpha  occ. eigenvalues --   -0.82092  -0.74235  -0.73442  -0.71832  -0.71170
 Alpha  occ. eigenvalues --   -0.68440  -0.67774  -0.65184  -0.64489  -0.60121
 Alpha  occ. eigenvalues --   -0.59464  -0.57812  -0.57103  -0.55957  -0.55205
 Alpha  occ. eigenvalues --   -0.54016  -0.53472  -0.53130  -0.52777  -0.52475
 Alpha  occ. eigenvalues --   -0.52421  -0.52010  -0.51584  -0.51422  -0.51000
 Alpha  occ. eigenvalues --   -0.50664  -0.50356  -0.49913  -0.49212  -0.48709
 Alpha  occ. eigenvalues --   -0.47947  -0.47403  -0.47021  -0.46554  -0.46335
 Alpha  occ. eigenvalues --   -0.45851  -0.45832  -0.45645  -0.45056  -0.44237
 Alpha  occ. eigenvalues --   -0.43694  -0.43621  -0.42908  -0.40012  -0.39321
 Alpha  occ. eigenvalues --   -0.38197  -0.37477  -0.33686  -0.32920
 Alpha virt. eigenvalues --   -0.09902  -0.09110  -0.08842  -0.08190  -0.02777
 Alpha virt. eigenvalues --   -0.02027  -0.01770  -0.01709  -0.01061  -0.00768
 Alpha virt. eigenvalues --   -0.00238  -0.00094   0.00113   0.00493   0.01260
 Alpha virt. eigenvalues --    0.01311   0.01465   0.01896   0.02025   0.02298
 Alpha virt. eigenvalues --    0.02504   0.02610   0.02942   0.03091   0.03519
 Alpha virt. eigenvalues --    0.03873   0.04016   0.04081   0.04508   0.04866
 Alpha virt. eigenvalues --    0.05341   0.05535   0.05789   0.06057   0.06437
 Alpha virt. eigenvalues --    0.06659   0.06734   0.06833   0.06982   0.07161
 Alpha virt. eigenvalues --    0.07516   0.07869   0.07997   0.08269   0.08414
 Alpha virt. eigenvalues --    0.08774   0.08989   0.09132   0.09485   0.09714
 Alpha virt. eigenvalues --    0.09927   0.10086   0.10497   0.10674   0.10743
 Alpha virt. eigenvalues --    0.10894   0.11410   0.11514   0.11763   0.11828
 Alpha virt. eigenvalues --    0.11935   0.11938   0.12619   0.12879   0.13181
 Alpha virt. eigenvalues --    0.13193   0.13638   0.13815   0.13862   0.14169
 Alpha virt. eigenvalues --    0.14322   0.14572   0.14737   0.15233   0.15283
 Alpha virt. eigenvalues --    0.15506   0.15659   0.15974   0.16048   0.16221
 Alpha virt. eigenvalues --    0.16462   0.16847   0.17082   0.17266   0.17388
 Alpha virt. eigenvalues --    0.17604   0.17800   0.18000   0.18277   0.18675
 Alpha virt. eigenvalues --    0.18841   0.19045   0.19275   0.19360   0.19830
 Alpha virt. eigenvalues --    0.19957   0.20151   0.20371   0.20563   0.20640
 Alpha virt. eigenvalues --    0.21127   0.21307   0.21559   0.21693   0.22056
 Alpha virt. eigenvalues --    0.22209   0.22438   0.22589   0.22810   0.23034
 Alpha virt. eigenvalues --    0.23114   0.23332   0.23471   0.23741   0.24095
 Alpha virt. eigenvalues --    0.24553   0.24572   0.24793   0.24997   0.25083
 Alpha virt. eigenvalues --    0.25235   0.25309   0.25585   0.25707   0.26075
 Alpha virt. eigenvalues --    0.26321   0.26425   0.26600   0.26997   0.27072
 Alpha virt. eigenvalues --    0.27187   0.27338   0.27694   0.27769   0.28218
 Alpha virt. eigenvalues --    0.28431   0.28572   0.29070   0.29265   0.29498
 Alpha virt. eigenvalues --    0.29943   0.30046   0.30318   0.30669   0.30920
 Alpha virt. eigenvalues --    0.31307   0.31693   0.31785   0.32041   0.32695
 Alpha virt. eigenvalues --    0.32985   0.33223   0.33747   0.34024   0.34494
 Alpha virt. eigenvalues --    0.34589   0.35161   0.35469   0.35773   0.35855
 Alpha virt. eigenvalues --    0.36311   0.36344   0.36849   0.37021   0.37173
 Alpha virt. eigenvalues --    0.38127   0.38278   0.38577   0.38911   0.39630
 Alpha virt. eigenvalues --    0.39982   0.40023   0.40524   0.40823   0.41514
 Alpha virt. eigenvalues --    0.41799   0.42038   0.42583   0.42963   0.43295
 Alpha virt. eigenvalues --    0.43948   0.44466   0.44899   0.45428   0.45818
 Alpha virt. eigenvalues --    0.46136   0.46834   0.47039   0.47475   0.48228
 Alpha virt. eigenvalues --    0.48527   0.49153   0.49648   0.50453   0.50913
 Alpha virt. eigenvalues --    0.51044   0.51218   0.51868   0.52032   0.52226
 Alpha virt. eigenvalues --    0.52382   0.52916   0.53288   0.53906   0.54233
 Alpha virt. eigenvalues --    0.54575   0.54688   0.55231   0.55414   0.55560
 Alpha virt. eigenvalues --    0.55753   0.55912   0.56168   0.56705   0.56901
 Alpha virt. eigenvalues --    0.57516   0.57816   0.58143   0.58456   0.58512
 Alpha virt. eigenvalues --    0.58966   0.59170   0.59435   0.59692   0.59914
 Alpha virt. eigenvalues --    0.60157   0.60747   0.60879   0.61038   0.61646
 Alpha virt. eigenvalues --    0.61858   0.62294   0.62627   0.62915   0.63349
 Alpha virt. eigenvalues --    0.63399   0.63817   0.64368   0.64469   0.64544
 Alpha virt. eigenvalues --    0.65095   0.65409   0.65817   0.66361   0.66611
 Alpha virt. eigenvalues --    0.66879   0.67202   0.67385   0.68208   0.68267
 Alpha virt. eigenvalues --    0.68644   0.69066   0.69477   0.70245   0.70412
 Alpha virt. eigenvalues --    0.71094   0.71596   0.71747   0.72379   0.72604
 Alpha virt. eigenvalues --    0.73110   0.73227   0.73636   0.74185   0.74446
 Alpha virt. eigenvalues --    0.75007   0.75050   0.76014   0.76295   0.76382
 Alpha virt. eigenvalues --    0.76841   0.77259   0.77407   0.77712   0.77945
 Alpha virt. eigenvalues --    0.78233   0.78645   0.79116   0.79612   0.79693
 Alpha virt. eigenvalues --    0.79835   0.80177   0.80446   0.80732   0.80856
 Alpha virt. eigenvalues --    0.81336   0.81611   0.81880   0.82493   0.83027
 Alpha virt. eigenvalues --    0.83395   0.83772   0.83949   0.84347   0.84689
 Alpha virt. eigenvalues --    0.85011   0.85356   0.85794   0.86141   0.86270
 Alpha virt. eigenvalues --    0.86525   0.86794   0.86957   0.87358   0.87699
 Alpha virt. eigenvalues --    0.87933   0.88154   0.88558   0.89116   0.89511
 Alpha virt. eigenvalues --    0.89825   0.90329   0.90462   0.90792   0.90862
 Alpha virt. eigenvalues --    0.90930   0.91573   0.91952   0.92229   0.92502
 Alpha virt. eigenvalues --    0.92616   0.93223   0.93356   0.94188   0.94598
 Alpha virt. eigenvalues --    0.94748   0.95378   0.95937   0.96206   0.96646
 Alpha virt. eigenvalues --    0.96967   0.97397   0.97684   0.98070   0.98674
 Alpha virt. eigenvalues --    0.99262   1.00331   1.00731   1.01022   1.01250
 Alpha virt. eigenvalues --    1.02101   1.02408   1.03067   1.03366   1.04210
 Alpha virt. eigenvalues --    1.04462   1.05096   1.05960   1.06523   1.06964
 Alpha virt. eigenvalues --    1.07356   1.07917   1.08129   1.08521   1.08778
 Alpha virt. eigenvalues --    1.09290   1.09855   1.10419   1.10861   1.11477
 Alpha virt. eigenvalues --    1.12214   1.12469   1.12845   1.13694   1.13995
 Alpha virt. eigenvalues --    1.14456   1.15334   1.15633   1.16162   1.16435
 Alpha virt. eigenvalues --    1.17480   1.17987   1.18201   1.19124   1.19948
 Alpha virt. eigenvalues --    1.20393   1.21124   1.21782   1.22179   1.22691
 Alpha virt. eigenvalues --    1.23188   1.23329   1.23853   1.24330   1.24918
 Alpha virt. eigenvalues --    1.25555   1.26540   1.26981   1.27861   1.27966
 Alpha virt. eigenvalues --    1.28696   1.30134   1.30493   1.30888   1.31267
 Alpha virt. eigenvalues --    1.32363   1.33899   1.34543   1.34691   1.37221
 Alpha virt. eigenvalues --    1.39075   1.39664   1.39989   1.40138   1.41225
 Alpha virt. eigenvalues --    1.42050   1.42272   1.42929   1.43907   1.44179
 Alpha virt. eigenvalues --    1.44781   1.45113   1.45697   1.46795   1.47351
 Alpha virt. eigenvalues --    1.47643   1.48273   1.48966   1.50113   1.50355
 Alpha virt. eigenvalues --    1.50719   1.51101   1.51747   1.51796   1.52494
 Alpha virt. eigenvalues --    1.52716   1.53264   1.53650   1.54383   1.54757
 Alpha virt. eigenvalues --    1.54947   1.55175   1.55533   1.55955   1.56163
 Alpha virt. eigenvalues --    1.56742   1.57144   1.57612   1.58097   1.58321
 Alpha virt. eigenvalues --    1.58738   1.59092   1.59776   1.60519   1.60705
 Alpha virt. eigenvalues --    1.61207   1.61555   1.62524   1.63191   1.63320
 Alpha virt. eigenvalues --    1.63773   1.64357   1.65084   1.65738   1.66136
 Alpha virt. eigenvalues --    1.67204   1.67518   1.67800   1.68739   1.69003
 Alpha virt. eigenvalues --    1.69294   1.70317   1.70688   1.71627   1.71932
 Alpha virt. eigenvalues --    1.72387   1.72715   1.74278   1.76208   1.76312
 Alpha virt. eigenvalues --    1.77336   1.77871   1.79076   1.79190   1.79567
 Alpha virt. eigenvalues --    1.80023   1.81257   1.81630   1.82557   1.83835
 Alpha virt. eigenvalues --    1.84504   1.86020   1.86917   1.87693   1.88906
 Alpha virt. eigenvalues --    1.89652   1.90382   1.91170   1.91546   1.91624
 Alpha virt. eigenvalues --    1.92601   1.94483   1.94745   1.95933   1.96448
 Alpha virt. eigenvalues --    1.97999   1.98380   1.99312   2.00641   2.02089
 Alpha virt. eigenvalues --    2.02750   2.03719   2.05914   2.06420   2.07879
 Alpha virt. eigenvalues --    2.08416   2.09025   2.09215   2.09856   2.11152
 Alpha virt. eigenvalues --    2.11298   2.13424   2.14955   2.16344   2.19590
 Alpha virt. eigenvalues --    2.21310   2.22054   2.23008   2.26399   2.26903
 Alpha virt. eigenvalues --    2.29782   2.30404   2.31674   2.32202   2.37092
 Alpha virt. eigenvalues --    2.37560   2.37847   2.38085   2.38440   2.38601
 Alpha virt. eigenvalues --    2.38872   2.39212   2.39945   2.40138   2.40576
 Alpha virt. eigenvalues --    2.40955   2.41620   2.42206   2.42521   2.43420
 Alpha virt. eigenvalues --    2.43707   2.44628   2.46066   2.46925   2.48545
 Alpha virt. eigenvalues --    2.52181   2.53164   2.53929   2.54792   2.61152
 Alpha virt. eigenvalues --    2.62324   2.64088   2.65149   2.68326   2.69076
 Alpha virt. eigenvalues --    2.70307   2.71959   2.72993   2.73976   2.75377
 Alpha virt. eigenvalues --    2.76489   2.77794   2.79215   2.80960   2.82581
 Alpha virt. eigenvalues --    2.82752   2.94544   2.95729   2.99940   3.00862
 Alpha virt. eigenvalues --    3.01775   3.08463   3.11015   3.11188   3.12980
 Alpha virt. eigenvalues --    3.15623   3.16113   3.18120   3.19307   3.23094
 Alpha virt. eigenvalues --    3.25410   3.25938   3.29077   3.33503   3.36723
 Alpha virt. eigenvalues --    3.40078   3.62203   3.65565   3.78286   3.80442
          Condensed to atoms (all electrons):
 Mulliken charges:
               1
     1  C    0.232529
     2  C   -0.119234
     3  S    0.722529
     4  S    0.301877
     5  C    1.138674
     6  C    1.087342
     7  C    0.933735
     8  N   -1.071104
     9  S    0.571523
    10  C   -1.197385
    11  N   -0.138337
    12  C   -1.177795
    13  N   -0.143086
    14  C   -0.992482
    15  N   -0.148161
    16  C    0.734748
    17  C   -0.095236
    18  S    0.385491
    19  S    0.201553
    20  C    1.099129
    21  C    1.145535
    22  C    0.655686
    23  N   -0.983947
    24  S    0.680759
    25  C   -1.170304
    26  N   -0.139708
    27  C   -1.187162
    28  N   -0.145228
    29  C   -1.062428
    30  N   -0.119514
 Sum of Mulliken charges =  -0.00000
 Mulliken charges with hydrogens summed into heavy atoms:
               1
     1  C    0.232529
     2  C   -0.119234
     3  S    0.722529
     4  S    0.301877
     5  C    1.138674
     6  C    1.087342
     7  C    0.933735
     8  N   -1.071104
     9  S    0.571523
    10  C   -1.197385
    11  N   -0.138337
    12  C   -1.177795
    13  N   -0.143086
    14  C   -0.992482
    15  N   -0.148161
    16  C    0.734748
    17  C   -0.095236
    18  S    0.385491
    19  S    0.201553
    20  C    1.099129
    21  C    1.145535
    22  C    0.655686
    23  N   -0.983947
    24  S    0.680759
    25  C   -1.170304
    26  N   -0.139708
    27  C   -1.187162
    28  N   -0.145228
    29  C   -1.062428
    30  N   -0.119514
 Electronic spatial extent (au):  <R**2>=          34322.3129
 Charge=             -0.0000 electrons
 Dipole moment (field-independent basis, Debye):
    X=             -5.7613    Y=              1.6598    Z=             -6.9561  Tot=              9.1834

 Test job not archived.
 1\1\GINC-CHIMERA-NODE31\SP\RM05\Gen\C16N8S6\CONNORNM\19-Jan-2019\0\\#T
  M05/Gen test Massage SCF=(fermi,maxcyc=60)\\M05 opt\\0,1\C,0,-0.47025
 141,0.84547795,-0.3242523\C,0,-0.57864796,-0.25087118,-1.22541567\S,0,
 -0.34282821,0.71055534,1.42333914\S,0,-0.57031636,-1.94973009,-0.72702
 094\C,0,0.55623834,-0.81127729,1.56414705\C,0,0.46283476,-1.8649248,0.
 7104804\C,0,-0.55236857,2.03196527,-1.02482909\N,0,-0.72665943,0.02687
 82,-2.4977395\S,0,-0.77971074,1.67750997,-2.70634732\C,0,1.38927524,-0
 .86411275,2.71928669\N,0,2.03464876,-0.8695832,3.68606284\C,0,1.196865
 48,-3.06564227,0.9416046\N,0,1.75320452,-4.07278015,1.10618373\C,0,-0.
 50227262,3.3549006,-0.52233436\N,0,-0.47246413,4.44733753,-0.12636856\
 C,0,-0.47115698,0.8442848,7.3739583\C,0,-0.57010501,-0.25119444,6.4706
 5261\S,0,-0.35418413,0.70740354,9.12212806\S,0,-0.55897325,-1.95069762
 ,6.96679106\C,0,0.54927734,-0.81149003,9.2664949\C,0,0.46487654,-1.864
 28117,8.41083645\C,0,-0.55302587,2.03144164,6.67448754\N,0,-0.71113166
 ,0.02778785,5.19780525\S,0,-0.76862434,1.67851062,4.99110298\C,0,1.375
 261,-0.86302015,10.42674716\N,0,2.01459785,-0.86757836,11.39753067\C,0
 ,1.20162441,-3.06275904,8.64492041\N,0,1.76042699,-4.06818424,8.811611
 69\C,0,-0.51067529,3.35385102,7.17907479\N,0,-0.48714385,4.44583959,7.
 57669666\\Version=AS64L-G09RevD.01\HF=-3448.3572772\RMSD=2.366e-09\Dip
 ole=-2.2666709,0.6530081,-2.7367254\Quadrupole=24.460481,-5.4617654,-1
 8.9987156,11.8925884,-27.8532641,4.5359148\PG=C01 [X(C16N8S6)]\\@


 A MAN IS EXACTLY AS GREAT AS THE TIDE SURGING
 BENEATH HIM.      - BISMARCK
 Job cpu time:       0 days 12 hours 21 minutes 36.0 seconds.
 File lengths (MBytes):  RWF=    225 Int=      0 D2E=      0 Chk=     19 Scr=      1
 Normal termination of Gaussian 09 at Sat Jan 19 12:16:15 2019.
