 Entering Gaussian System, Link 0=/data/szalewicgrp/connornm/opt/Gaussian/g09-M05-par/g09/g09
 AtFile(1): blind-aug.gbs
 Initial command:
 /data/szalewicgrp/connornm/opt/Gaussian/g09-M05-par/g09/l1.exe "/scratch/local/Gau-22954.inp" -scrdir="/scratch/local/"
 Entering Link 1 = /data/szalewicgrp/connornm/opt/Gaussian/g09-M05-par/g09/l1.exe PID=     22955.
  
 Copyright (c) 1988,1990,1992,1993,1995,1998,2003,2009,2013,
            Gaussian, Inc.  All Rights Reserved.
  
 This is part of the Gaussian(R) 09 program.  It is based on
 the Gaussian(R) 03 system (copyright 2003, Gaussian, Inc.),
 the Gaussian(R) 98 system (copyright 1998, Gaussian, Inc.),
 the Gaussian(R) 94 system (copyright 1995, Gaussian, Inc.),
 the Gaussian 92(TM) system (copyright 1992, Gaussian, Inc.),
 the Gaussian 90(TM) system (copyright 1990, Gaussian, Inc.),
 the Gaussian 88(TM) system (copyright 1988, Gaussian, Inc.),
 the Gaussian 86(TM) system (copyright 1986, Carnegie Mellon
 University), and the Gaussian 82(TM) system (copyright 1983,
 Carnegie Mellon University). Gaussian is a federally registered
 trademark of Gaussian, Inc.
  
 This software contains proprietary and confidential information,
 including trade secrets, belonging to Gaussian, Inc.
  
 This software is provided under written license and may be
 used, copied, transmitted, or stored only in accord with that
 written license.
  
 The following legend is applicable only to US Government
 contracts under FAR:
  
                    RESTRICTED RIGHTS LEGEND
  
 Use, reproduction and disclosure by the US Government is
 subject to restrictions as set forth in subparagraphs (a)
 and (c) of the Commercial Computer Software - Restricted
 Rights clause in FAR 52.227-19.
  
 Gaussian, Inc.
 340 Quinnipiac St., Bldg. 40, Wallingford CT 06492
  
  
 ---------------------------------------------------------------
 Warning -- This program may not be used in any manner that
 competes with the business of Gaussian, Inc. or will provide
 assistance to any competitor of Gaussian, Inc.  The licensee
 of this program is prohibited from giving any competitor of
 Gaussian, Inc. access to this program.  By using this program,
 the user acknowledges that Gaussian, Inc. is engaged in the
 business of creating and licensing software in the field of
 computational chemistry and represents and warrants to the
 licensee that it is not a competitor of Gaussian, Inc. and that
 it will not use this program in any manner prohibited above.
 ---------------------------------------------------------------
  

 Cite this work as:
 Gaussian 09, Revision D.01,
 M. J. Frisch, G. W. Trucks, H. B. Schlegel, G. E. Scuseria, 
 M. A. Robb, J. R. Cheeseman, G. Scalmani, V. Barone, B. Mennucci, 
 G. A. Petersson, H. Nakatsuji, M. Caricato, X. Li, H. P. Hratchian, 
 A. F. Izmaylov, J. Bloino, G. Zheng, J. L. Sonnenberg, M. Hada, 
 M. Ehara, K. Toyota, R. Fukuda, J. Hasegawa, M. Ishida, T. Nakajima, 
 Y. Honda, O. Kitao, H. Nakai, T. Vreven, J. A. Montgomery, Jr., 
 J. E. Peralta, F. Ogliaro, M. Bearpark, J. J. Heyd, E. Brothers, 
 K. N. Kudin, V. N. Staroverov, T. Keith, R. Kobayashi, J. Normand, 
 K. Raghavachari, A. Rendell, J. C. Burant, S. S. Iyengar, J. Tomasi, 
 M. Cossi, N. Rega, J. M. Millam, M. Klene, J. E. Knox, J. B. Cross, 
 V. Bakken, C. Adamo, J. Jaramillo, R. Gomperts, R. E. Stratmann, 
 O. Yazyev, A. J. Austin, R. Cammi, C. Pomelli, J. W. Ochterski, 
 R. L. Martin, K. Morokuma, V. G. Zakrzewski, G. A. Voth, 
 P. Salvador, J. J. Dannenberg, S. Dapprich, A. D. Daniels, 
 O. Farkas, J. B. Foresman, J. V. Ortiz, J. Cioslowski, 
 and D. J. Fox, Gaussian, Inc., Wallingford CT, 2013.
 
 ******************************************
 Gaussian 09:  AS64L-G09RevD.01 24-Apr-2013
                19-Jan-2019 
 ******************************************
 %Chk=BLIND00114_mA
 %Mem=1GB
 %NProcShared=48
 Will use up to   48 processors via shared memory.
 ---------------------------------------------
 #T M05/Gen test Massage SCF=(fermi,maxcyc=60)
 ---------------------------------------------
 -------
 M05 opt
 -------
 Symbolic Z-matrix:
 Charge =  0 Multiplicity = 1
 6                     0.47229  -0.23131  -0.87439 
 6                    -0.29513  -1.30317  -0.33772 
 16                    0.10259   1.47559  -0.67855 
 16                   -1.7463   -1.08596   0.65299 
 6                    -0.63302   1.46274   0.93478 
 6                    -1.3668    0.44591   1.45944 
 6                     1.50985  -0.73692  -1.63143 
 7                     0.08646  -2.52277  -0.62897 
 16                    1.41826  -2.46794  -1.62607 
 6                    -0.42337   2.67457   1.65491 
 7                    -0.24627   3.68964   2.19293 
 6                    -1.95613   0.55614   2.75345 
 7                    -2.47854   0.6137    3.79014 
 6                     2.50184  -0.02603  -2.34959 
 7                     3.31806   0.54117  -2.95222 
 
                    Distance matrix (angstroms):
                    1          2          3          4          5
     1  C    0.000000
     2  C    1.423315   0.000000
     3  S    1.757418   2.827694   0.000000
     4  S    2.825849   1.770477   3.428253   0.000000
     5  C    2.713774   3.063280   1.773167   2.795470   0.000000
     6  C    3.047557   2.727187   2.791121   1.772288   1.359281
     7  C    1.380327   2.291783   2.789903   3.992857   4.001979
     8  N    2.336642   1.310672   3.998700   2.658358   4.341342
     9  S    2.542129   2.439721   4.263822   4.137445   5.120151
    10  C    3.955208   4.450782   2.675676   4.110426   1.425163
    11  N    5.029770   5.597745   3.642685   5.237162   2.586817
    12  C    4.436049   3.971317   4.106384   2.674416   2.424897
    13  N    5.583831   5.047859   5.232040   3.642352   3.504263
    14  C    2.517432   3.674472   3.286888   5.309014   4.778168
    15  N    3.607292   4.826214   4.047461   6.425950   5.618639
                    6          7          8          9         10
     6  C    0.000000
     7  C    4.384939   0.000000
     8  N    3.909794   2.494036   0.000000
     9  S    5.076167   1.733444   1.664607   0.000000
    10  C    2.428007   5.116215   5.699860   6.371958   0.000000
    11  N    3.509330   6.107712   6.831389   7.434461   1.162408
    12  C    1.426163   5.736923   5.009263   6.301738   2.836178
    13  N    2.587713   6.864751   5.995430   7.349618   3.609722
    14  C    5.449573   1.416040   3.876636   2.767765   5.646781
    15  N    6.435818   2.578302   5.022796   3.797715   6.306769
                   11         12         13         14         15
    11  N    0.000000
    12  C    3.613393   0.000000
    13  N    4.122555   1.162293   0.000000
    14  C    6.480188   6.800997   7.931563   0.000000
    15  N    7.006418   7.769948   8.891861   1.162367   0.000000
 Symmetry turned off by external request.
 Framework group  C1[X(C8N4S3)]
 Deg. of freedom    39
 Rotational constants (GHZ):      0.7722167      0.3388923      0.2463240
   357 basis functions,   759 primitive gaussians,   387 cartesian basis functions
    62 alpha electrons       62 beta electrons
       nuclear repulsion energy      1166.1400399452 Hartrees.
 IMHF & INEx in M05                  599485                  400514
 NAtoms=   15 NActive=   15 NUniq=   15 SFac= 1.00D+00 NAtFMM=   60 NAOKFM=F Big=F
 PrsmSu:  requested number of processors reduced to:  34 ShMem   1 Linda.
 ExpMin= 3.99D-02 ExpMax= 1.11D+05 ExpMxC= 1.07D+03 IAcc=3 IRadAn=         5 AccDes= 0.00D+00
 Harris functional with IExCor= 1009 and IRadAn=       5 diagonalized for initial guess.
 HarFok:  IExCor= 1009 AccDes= 0.00D+00 IRadAn=         5 IDoV= 1 UseB2=F ITyADJ=14
 ICtDFT=  3500011 ScaDFX=  1.000000  1.000000  1.000000  1.000000
 FoFCou: FMM=F IPFlag=           0 FMFlag=      100000 FMFlg1=           0
         NFxFlg=           0 DoJE=T BraDBF=F KetDBF=T FulRan=T
         wScrn=  0.000000 ICntrl=     500 IOpCl=  0 I1Cent=   200000004 NGrid=           0
         NMat0=    1 NMatS0=      1 NMatT0=    0 NMatD0=    1 NMtDS0=    0 NMtDT0=    0
 Symmetry not used in FoFCou.
 SCF Done:  E(RM05) =  -1724.76148391     A.U. after   17 cycles
            NFock= 17  Conv=0.51D-08     -V/T= 2.0061

 **********************************************************************

            Population analysis using the SCF density.

 **********************************************************************

 Alpha  occ. eigenvalues --  -90.56431 -90.53635 -90.53180 -15.08622 -15.05417
 Alpha  occ. eigenvalues --  -15.04969 -15.04934 -10.89945 -10.89827 -10.89736
 Alpha  occ. eigenvalues --  -10.88752 -10.87414 -10.84946 -10.84332 -10.84311
 Alpha  occ. eigenvalues --   -8.57526  -8.55035  -8.54608  -6.40064  -6.39713
 Alpha  occ. eigenvalues --   -6.39401  -6.37596  -6.37282  -6.37161  -6.36852
 Alpha  occ. eigenvalues --   -6.36821  -6.36391  -1.20533  -1.12895  -1.12139
 Alpha  occ. eigenvalues --   -1.11337  -1.07643  -1.03801  -0.98824  -0.97396
 Alpha  occ. eigenvalues --   -0.88003  -0.84555  -0.82236  -0.73687  -0.71296
 Alpha  occ. eigenvalues --   -0.67838  -0.64612  -0.59530  -0.57258  -0.55386
 Alpha  occ. eigenvalues --   -0.53385  -0.52648  -0.52243  -0.51890  -0.50883
 Alpha  occ. eigenvalues --   -0.50387  -0.49356  -0.48215  -0.46805  -0.46075
 Alpha  occ. eigenvalues --   -0.45933  -0.45296  -0.43720  -0.43113  -0.39488
 Alpha  occ. eigenvalues --   -0.37628  -0.33119
 Alpha virt. eigenvalues --   -0.09329  -0.08268  -0.02099  -0.01263  -0.00502
 Alpha virt. eigenvalues --   -0.00361   0.00152   0.01254   0.02020   0.02231
 Alpha virt. eigenvalues --    0.02395   0.02956   0.03190   0.04003   0.04275
 Alpha virt. eigenvalues --    0.04486   0.05427   0.06007   0.06300   0.07067
 Alpha virt. eigenvalues --    0.07271   0.07526   0.07708   0.08290   0.08492
 Alpha virt. eigenvalues --    0.09376   0.10093   0.10395   0.10522   0.10814
 Alpha virt. eigenvalues --    0.11289   0.11393   0.11978   0.12527   0.13228
 Alpha virt. eigenvalues --    0.13490   0.13938   0.14453   0.15074   0.15192
 Alpha virt. eigenvalues --    0.15903   0.16274   0.16679   0.16811   0.17186
 Alpha virt. eigenvalues --    0.17358   0.17841   0.18612   0.19048   0.19565
 Alpha virt. eigenvalues --    0.19859   0.20239   0.20685   0.20941   0.21264
 Alpha virt. eigenvalues --    0.21878   0.22205   0.22582   0.22822   0.23614
 Alpha virt. eigenvalues --    0.23751   0.24114   0.24370   0.24702   0.25259
 Alpha virt. eigenvalues --    0.25694   0.25849   0.26224   0.26624   0.26746
 Alpha virt. eigenvalues --    0.27068   0.28335   0.29195   0.29663   0.30368
 Alpha virt. eigenvalues --    0.30710   0.32420   0.33456   0.34155   0.34715
 Alpha virt. eigenvalues --    0.34946   0.35469   0.36120   0.36936   0.37594
 Alpha virt. eigenvalues --    0.38153   0.39578   0.40726   0.41169   0.42051
 Alpha virt. eigenvalues --    0.42119   0.43484   0.44136   0.45737   0.45985
 Alpha virt. eigenvalues --    0.46961   0.48549   0.49574   0.50233   0.50594
 Alpha virt. eigenvalues --    0.51525   0.51859   0.53528   0.54168   0.54423
 Alpha virt. eigenvalues --    0.54701   0.55467   0.55734   0.55838   0.56449
 Alpha virt. eigenvalues --    0.57766   0.58139   0.58557   0.59215   0.60311
 Alpha virt. eigenvalues --    0.60554   0.61101   0.61587   0.62106   0.62710
 Alpha virt. eigenvalues --    0.63720   0.64715   0.64952   0.66006   0.66561
 Alpha virt. eigenvalues --    0.67688   0.68189   0.68807   0.70106   0.70418
 Alpha virt. eigenvalues --    0.71049   0.72863   0.73466   0.73856   0.75370
 Alpha virt. eigenvalues --    0.75567   0.76458   0.77064   0.77553   0.77843
 Alpha virt. eigenvalues --    0.78246   0.79252   0.79761   0.79879   0.81108
 Alpha virt. eigenvalues --    0.81536   0.82545   0.83272   0.83957   0.84871
 Alpha virt. eigenvalues --    0.85698   0.85941   0.87125   0.87251   0.88403
 Alpha virt. eigenvalues --    0.88458   0.89345   0.89668   0.89830   0.90730
 Alpha virt. eigenvalues --    0.91172   0.91722   0.92829   0.93724   0.94366
 Alpha virt. eigenvalues --    0.95433   0.95562   0.97326   0.98746   0.99309
 Alpha virt. eigenvalues --    0.99849   1.01206   1.02847   1.03574   1.04749
 Alpha virt. eigenvalues --    1.05760   1.06745   1.08037   1.08543   1.09635
 Alpha virt. eigenvalues --    1.10234   1.11404   1.13197   1.13607   1.14402
 Alpha virt. eigenvalues --    1.15323   1.17100   1.18344   1.20284   1.20632
 Alpha virt. eigenvalues --    1.21610   1.22699   1.23937   1.24222   1.26558
 Alpha virt. eigenvalues --    1.27344   1.29757   1.30250   1.32271   1.34127
 Alpha virt. eigenvalues --    1.37312   1.40082   1.40257   1.41567   1.42730
 Alpha virt. eigenvalues --    1.43615   1.45023   1.46462   1.47273   1.49370
 Alpha virt. eigenvalues --    1.49823   1.50473   1.51643   1.51867   1.52332
 Alpha virt. eigenvalues --    1.53717   1.54192   1.55432   1.56138   1.56450
 Alpha virt. eigenvalues --    1.56789   1.58488   1.59727   1.60389   1.60517
 Alpha virt. eigenvalues --    1.62130   1.63281   1.64921   1.66027   1.67547
 Alpha virt. eigenvalues --    1.68613   1.69175   1.70470   1.71323   1.74153
 Alpha virt. eigenvalues --    1.76826   1.77078   1.79017   1.79376   1.81043
 Alpha virt. eigenvalues --    1.82958   1.85919   1.88150   1.89703   1.90608
 Alpha virt. eigenvalues --    1.91368   1.94485   1.95007   1.97394   2.00539
 Alpha virt. eigenvalues --    2.00828   2.05448   2.07035   2.08350   2.08473
 Alpha virt. eigenvalues --    2.10896   2.13936   2.18607   2.20232   2.24592
 Alpha virt. eigenvalues --    2.27646   2.30686   2.37026   2.37401   2.38001
 Alpha virt. eigenvalues --    2.38279   2.39370   2.39930   2.40470   2.42150
 Alpha virt. eigenvalues --    2.42560   2.43756   2.45056   2.51020   2.54996
 Alpha virt. eigenvalues --    2.61156   2.64126   2.68329   2.71898   2.73263
 Alpha virt. eigenvalues --    2.76309   2.78780   2.81840   2.94680   2.99731
 Alpha virt. eigenvalues --    3.01875   3.09943   3.11449   3.15939   3.17849
 Alpha virt. eigenvalues --    3.24294   3.27128   3.35291   3.59304   3.74891
          Condensed to atoms (all electrons):
 Mulliken charges:
               1
     1  C    0.620061
     2  C   -0.108207
     3  S    0.374402
     4  S    0.296610
     5  C    1.040091
     6  C    1.130760
     7  C    0.786971
     8  N   -1.083121
     9  S    0.557292
    10  C   -1.130155
    11  N   -0.168025
    12  C   -1.099921
    13  N   -0.180491
    14  C   -0.853369
    15  N   -0.182900
 Sum of Mulliken charges =  -0.00000
 Mulliken charges with hydrogens summed into heavy atoms:
               1
     1  C    0.620061
     2  C   -0.108207
     3  S    0.374402
     4  S    0.296610
     5  C    1.040091
     6  C    1.130760
     7  C    0.786971
     8  N   -1.083121
     9  S    0.557292
    10  C   -1.130155
    11  N   -0.168025
    12  C   -1.099921
    13  N   -0.180491
    14  C   -0.853369
    15  N   -0.182900
 Electronic spatial extent (au):  <R**2>=           4013.7192
 Charge=             -0.0000 electrons
 Dipole moment (field-independent basis, Debye):
    X=             -0.2722    Y=             -3.5410    Z=             -3.0558  Tot=              4.6851

 Test job not archived.
 1\1\GINC-CHIMERA-NODE28\SP\RM05\Gen\C8N4S3\CONNORNM\19-Jan-2019\0\\#T 
 M05/Gen test Massage SCF=(fermi,maxcyc=60)\\M05 opt\\0,1\C,0,0.4722855
 9,-0.23130837,-0.87438645\C,0,-0.29512574,-1.30317317,-0.33771862\S,0,
 0.10259141,1.47558695,-0.6785518\S,0,-1.74630153,-1.08595951,0.6529858
 7\C,0,-0.63302401,1.4627379,0.9347761\C,0,-1.36680243,0.44590807,1.459
 43826\C,0,1.50985148,-0.73692366,-1.63142899\N,0,0.08646405,-2.5227727
 ,-0.62896805\S,0,1.41826353,-2.46793768,-1.62607395\C,0,-0.42336522,2.
 67457043,1.65491134\N,0,-0.24626627,3.68963691,2.1929346\C,0,-1.956134
 03,0.55614415,2.75345457\N,0,-2.47853685,0.61370236,3.79013604\C,0,2.5
 0183927,-0.0260314,-2.34959392\N,0,3.31805769,0.54117233,-2.95222427\\
 Version=AS64L-G09RevD.01\HF=-1724.7614839\RMSD=5.111e-09\Dipole=-0.107
 0773,-1.3931267,-1.2022296\Quadrupole=2.8246379,1.9969474,-4.8215853,-
 3.7271831,9.9514045,-2.8762028\PG=C01 [X(C8N4S3)]\\@


 ALMOST ALL THE CHEMICAL PROCESSES WHICH OCCUR IN NATURE,
 WHETHER IN ANIMAL OR VEGETABLE ORGANISMS,
 OR IN THE NON-LIVING SURFACE OF THE EARTH ... 
 TAKE PLACE BETWEEN SUBSTANCES IN SOLUTION

                                    -- W. OSTWALD, 1890
 Job cpu time:       0 days  1 hours 56 minutes 26.6 seconds.
 File lengths (MBytes):  RWF=     58 Int=      0 D2E=      0 Chk=      6 Scr=      1
 Normal termination of Gaussian 09 at Sat Jan 19 11:05:13 2019.
