 Entering Gaussian System, Link 0=/data/szalewicgrp/connornm/opt/Gaussian/g09-M05-par/g09/g09
 AtFile(1): blind-aug.gbs
 Initial command:
 /data/szalewicgrp/connornm/opt/Gaussian/g09-M05-par/g09/l1.exe "/scratch/local/Gau-30404.inp" -scrdir="/scratch/local/"
 Entering Link 1 = /data/szalewicgrp/connornm/opt/Gaussian/g09-M05-par/g09/l1.exe PID=     30405.
  
 Copyright (c) 1988,1990,1992,1993,1995,1998,2003,2009,2013,
            Gaussian, Inc.  All Rights Reserved.
  
 This is part of the Gaussian(R) 09 program.  It is based on
 the Gaussian(R) 03 system (copyright 2003, Gaussian, Inc.),
 the Gaussian(R) 98 system (copyright 1998, Gaussian, Inc.),
 the Gaussian(R) 94 system (copyright 1995, Gaussian, Inc.),
 the Gaussian 92(TM) system (copyright 1992, Gaussian, Inc.),
 the Gaussian 90(TM) system (copyright 1990, Gaussian, Inc.),
 the Gaussian 88(TM) system (copyright 1988, Gaussian, Inc.),
 the Gaussian 86(TM) system (copyright 1986, Carnegie Mellon
 University), and the Gaussian 82(TM) system (copyright 1983,
 Carnegie Mellon University). Gaussian is a federally registered
 trademark of Gaussian, Inc.
  
 This software contains proprietary and confidential information,
 including trade secrets, belonging to Gaussian, Inc.
  
 This software is provided under written license and may be
 used, copied, transmitted, or stored only in accord with that
 written license.
  
 The following legend is applicable only to US Government
 contracts under FAR:
  
                    RESTRICTED RIGHTS LEGEND
  
 Use, reproduction and disclosure by the US Government is
 subject to restrictions as set forth in subparagraphs (a)
 and (c) of the Commercial Computer Software - Restricted
 Rights clause in FAR 52.227-19.
  
 Gaussian, Inc.
 340 Quinnipiac St., Bldg. 40, Wallingford CT 06492
  
  
 ---------------------------------------------------------------
 Warning -- This program may not be used in any manner that
 competes with the business of Gaussian, Inc. or will provide
 assistance to any competitor of Gaussian, Inc.  The licensee
 of this program is prohibited from giving any competitor of
 Gaussian, Inc. access to this program.  By using this program,
 the user acknowledges that Gaussian, Inc. is engaged in the
 business of creating and licensing software in the field of
 computational chemistry and represents and warrants to the
 licensee that it is not a competitor of Gaussian, Inc. and that
 it will not use this program in any manner prohibited above.
 ---------------------------------------------------------------
  

 Cite this work as:
 Gaussian 09, Revision D.01,
 M. J. Frisch, G. W. Trucks, H. B. Schlegel, G. E. Scuseria, 
 M. A. Robb, J. R. Cheeseman, G. Scalmani, V. Barone, B. Mennucci, 
 G. A. Petersson, H. Nakatsuji, M. Caricato, X. Li, H. P. Hratchian, 
 A. F. Izmaylov, J. Bloino, G. Zheng, J. L. Sonnenberg, M. Hada, 
 M. Ehara, K. Toyota, R. Fukuda, J. Hasegawa, M. Ishida, T. Nakajima, 
 Y. Honda, O. Kitao, H. Nakai, T. Vreven, J. A. Montgomery, Jr., 
 J. E. Peralta, F. Ogliaro, M. Bearpark, J. J. Heyd, E. Brothers, 
 K. N. Kudin, V. N. Staroverov, T. Keith, R. Kobayashi, J. Normand, 
 K. Raghavachari, A. Rendell, J. C. Burant, S. S. Iyengar, J. Tomasi, 
 M. Cossi, N. Rega, J. M. Millam, M. Klene, J. E. Knox, J. B. Cross, 
 V. Bakken, C. Adamo, J. Jaramillo, R. Gomperts, R. E. Stratmann, 
 O. Yazyev, A. J. Austin, R. Cammi, C. Pomelli, J. W. Ochterski, 
 R. L. Martin, K. Morokuma, V. G. Zakrzewski, G. A. Voth, 
 P. Salvador, J. J. Dannenberg, S. Dapprich, A. D. Daniels, 
 O. Farkas, J. B. Foresman, J. V. Ortiz, J. Cioslowski, 
 and D. J. Fox, Gaussian, Inc., Wallingford CT, 2013.
 
 ******************************************
 Gaussian 09:  AS64L-G09RevD.01 24-Apr-2013
                19-Jan-2019 
 ******************************************
 %Chk=BLIND00456_mB
 %Mem=1GB
 %NProcShared=48
 Will use up to   48 processors via shared memory.
 ---------------------------------------------
 #T M05/Gen test Massage SCF=(fermi,maxcyc=60)
 ---------------------------------------------
 -------
 M05 opt
 -------
 Symbolic Z-matrix:
 Charge =  0 Multiplicity = 1
 6                    -0.7277   -0.53391   6.35673 
 6                     0.52303  -1.20942   6.28473 
 16                   -0.9332    1.20937   6.44196 
 16                    2.09195  -0.3904    6.23663 
 6                     0.4551    1.74482   5.47757 
 6                     1.6539    1.10891   5.39927 
 6                    -1.75113  -1.45787   6.42159 
 7                     0.50153  -2.51991   6.28821 
 16                   -1.07066  -3.05215   6.41409 
 6                     0.22128   2.97363   4.79459 
 7                    -0.00802   3.98869   4.27664 
 6                     2.72475   1.65108   4.62902 
 7                     3.63338   2.07068   4.03804 
 6                    -3.1442   -1.22163   6.5149 
 7                    -4.29004  -1.04634   6.60101 
 
                    Distance matrix (angstroms):
                    1          2          3          4          5
     1  C    0.000000
     2  C    1.423315   0.000000
     3  S    1.757418   2.827694   0.000000
     4  S    2.825849   1.770477   3.428253   0.000000
     5  C    2.713774   3.063280   1.773167   2.795470   0.000000
     6  C    3.047557   2.727187   2.791121   1.772288   1.359281
     7  C    1.380327   2.291783   2.789903   3.992857   4.001979
     8  N    2.336642   1.310672   3.998700   2.658358   4.341342
     9  S    2.542129   2.439721   4.263822   4.137445   5.120151
    10  C    3.955208   4.450782   2.675676   4.110426   1.425163
    11  N    5.029770   5.597745   3.642685   5.237162   2.586817
    12  C    4.436049   3.971317   4.106384   2.674416   2.424897
    13  N    5.583831   5.047859   5.232040   3.642352   3.504263
    14  C    2.517432   3.674472   3.286888   5.309014   4.778168
    15  N    3.607292   4.826214   4.047461   6.425950   5.618639
                    6          7          8          9         10
     6  C    0.000000
     7  C    4.384939   0.000000
     8  N    3.909794   2.494036   0.000000
     9  S    5.076167   1.733444   1.664607   0.000000
    10  C    2.428007   5.116215   5.699860   6.371958   0.000000
    11  N    3.509330   6.107712   6.831389   7.434461   1.162408
    12  C    1.426163   5.736923   5.009263   6.301738   2.836178
    13  N    2.587713   6.864751   5.995430   7.349618   3.609722
    14  C    5.449573   1.416040   3.876636   2.767765   5.646781
    15  N    6.435818   2.578302   5.022796   3.797715   6.306769
                   11         12         13         14         15
    11  N    0.000000
    12  C    3.613393   0.000000
    13  N    4.122555   1.162293   0.000000
    14  C    6.480188   6.800997   7.931563   0.000000
    15  N    7.006418   7.769948   8.891861   1.162367   0.000000
 Symmetry turned off by external request.
 Framework group  C1[X(C8N4S3)]
 Deg. of freedom    39
 Rotational constants (GHZ):      0.7722167      0.3388923      0.2463240
   357 basis functions,   759 primitive gaussians,   387 cartesian basis functions
    62 alpha electrons       62 beta electrons
       nuclear repulsion energy      1166.1400402275 Hartrees.
 IMHF & INEx in M05                  599485                  400514
 NAtoms=   15 NActive=   15 NUniq=   15 SFac= 1.00D+00 NAtFMM=   60 NAOKFM=F Big=F
 PrsmSu:  requested number of processors reduced to:  34 ShMem   1 Linda.
 ExpMin= 3.99D-02 ExpMax= 1.11D+05 ExpMxC= 1.07D+03 IAcc=3 IRadAn=         5 AccDes= 0.00D+00
 Harris functional with IExCor= 1009 and IRadAn=       5 diagonalized for initial guess.
 HarFok:  IExCor= 1009 AccDes= 0.00D+00 IRadAn=         5 IDoV= 1 UseB2=F ITyADJ=14
 ICtDFT=  3500011 ScaDFX=  1.000000  1.000000  1.000000  1.000000
 FoFCou: FMM=F IPFlag=           0 FMFlag=      100000 FMFlg1=           0
         NFxFlg=           0 DoJE=T BraDBF=F KetDBF=T FulRan=T
         wScrn=  0.000000 ICntrl=     500 IOpCl=  0 I1Cent=   200000004 NGrid=           0
         NMat0=    1 NMatS0=      1 NMatT0=    0 NMatD0=    1 NMtDS0=    0 NMtDT0=    0
 Symmetry not used in FoFCou.
 SCF Done:  E(RM05) =  -1724.76146140     A.U. after   17 cycles
            NFock= 17  Conv=0.52D-08     -V/T= 2.0061

 **********************************************************************

            Population analysis using the SCF density.

 **********************************************************************

 Alpha  occ. eigenvalues --  -90.56430 -90.53635 -90.53179 -15.08622 -15.05417
 Alpha  occ. eigenvalues --  -15.04969 -15.04933 -10.89945 -10.89826 -10.89736
 Alpha  occ. eigenvalues --  -10.88752 -10.87414 -10.84947 -10.84331 -10.84310
 Alpha  occ. eigenvalues --   -8.57525  -8.55034  -8.54607  -6.40063  -6.39712
 Alpha  occ. eigenvalues --   -6.39400  -6.37596  -6.37282  -6.37161  -6.36851
 Alpha  occ. eigenvalues --   -6.36821  -6.36390  -1.20533  -1.12895  -1.12139
 Alpha  occ. eigenvalues --   -1.11337  -1.07643  -1.03801  -0.98824  -0.97395
 Alpha  occ. eigenvalues --   -0.88002  -0.84555  -0.82236  -0.73686  -0.71296
 Alpha  occ. eigenvalues --   -0.67838  -0.64612  -0.59530  -0.57258  -0.55386
 Alpha  occ. eigenvalues --   -0.53385  -0.52648  -0.52242  -0.51890  -0.50883
 Alpha  occ. eigenvalues --   -0.50387  -0.49356  -0.48215  -0.46805  -0.46074
 Alpha  occ. eigenvalues --   -0.45932  -0.45296  -0.43720  -0.43113  -0.39488
 Alpha  occ. eigenvalues --   -0.37627  -0.33119
 Alpha virt. eigenvalues --   -0.09329  -0.08269  -0.02098  -0.01263  -0.00503
 Alpha virt. eigenvalues --   -0.00361   0.00154   0.01255   0.02021   0.02228
 Alpha virt. eigenvalues --    0.02393   0.02958   0.03188   0.04003   0.04279
 Alpha virt. eigenvalues --    0.04486   0.05427   0.06010   0.06296   0.07069
 Alpha virt. eigenvalues --    0.07269   0.07525   0.07706   0.08289   0.08490
 Alpha virt. eigenvalues --    0.09381   0.10093   0.10394   0.10524   0.10807
 Alpha virt. eigenvalues --    0.11287   0.11392   0.11980   0.12525   0.13227
 Alpha virt. eigenvalues --    0.13494   0.13938   0.14455   0.15075   0.15188
 Alpha virt. eigenvalues --    0.15900   0.16269   0.16675   0.16816   0.17189
 Alpha virt. eigenvalues --    0.17358   0.17839   0.18612   0.19056   0.19560
 Alpha virt. eigenvalues --    0.19859   0.20238   0.20684   0.20952   0.21268
 Alpha virt. eigenvalues --    0.21884   0.22207   0.22582   0.22823   0.23613
 Alpha virt. eigenvalues --    0.23745   0.24117   0.24370   0.24702   0.25259
 Alpha virt. eigenvalues --    0.25696   0.25850   0.26232   0.26621   0.26749
 Alpha virt. eigenvalues --    0.27068   0.28331   0.29195   0.29664   0.30368
 Alpha virt. eigenvalues --    0.30709   0.32419   0.33460   0.34152   0.34715
 Alpha virt. eigenvalues --    0.34952   0.35470   0.36123   0.36935   0.37594
 Alpha virt. eigenvalues --    0.38151   0.39577   0.40728   0.41170   0.42048
 Alpha virt. eigenvalues --    0.42117   0.43485   0.44136   0.45738   0.45979
 Alpha virt. eigenvalues --    0.46960   0.48557   0.49575   0.50235   0.50599
 Alpha virt. eigenvalues --    0.51526   0.51860   0.53530   0.54166   0.54424
 Alpha virt. eigenvalues --    0.54702   0.55468   0.55736   0.55839   0.56450
 Alpha virt. eigenvalues --    0.57774   0.58138   0.58558   0.59215   0.60312
 Alpha virt. eigenvalues --    0.60548   0.61104   0.61588   0.62106   0.62707
 Alpha virt. eigenvalues --    0.63719   0.64718   0.64955   0.66007   0.66557
 Alpha virt. eigenvalues --    0.67687   0.68189   0.68803   0.70107   0.70414
 Alpha virt. eigenvalues --    0.71047   0.72861   0.73466   0.73855   0.75369
 Alpha virt. eigenvalues --    0.75566   0.76453   0.77062   0.77551   0.77842
 Alpha virt. eigenvalues --    0.78246   0.79256   0.79760   0.79881   0.81107
 Alpha virt. eigenvalues --    0.81539   0.82545   0.83274   0.83956   0.84870
 Alpha virt. eigenvalues --    0.85699   0.85939   0.87121   0.87249   0.88404
 Alpha virt. eigenvalues --    0.88459   0.89346   0.89666   0.89830   0.90729
 Alpha virt. eigenvalues --    0.91173   0.91724   0.92829   0.93720   0.94367
 Alpha virt. eigenvalues --    0.95433   0.95566   0.97324   0.98741   0.99315
 Alpha virt. eigenvalues --    0.99845   1.01204   1.02846   1.03574   1.04752
 Alpha virt. eigenvalues --    1.05757   1.06745   1.08036   1.08540   1.09633
 Alpha virt. eigenvalues --    1.10231   1.11397   1.13197   1.13607   1.14402
 Alpha virt. eigenvalues --    1.15320   1.17102   1.18346   1.20286   1.20629
 Alpha virt. eigenvalues --    1.21605   1.22701   1.23935   1.24222   1.26561
 Alpha virt. eigenvalues --    1.27344   1.29757   1.30249   1.32274   1.34127
 Alpha virt. eigenvalues --    1.37315   1.40082   1.40255   1.41566   1.42729
 Alpha virt. eigenvalues --    1.43614   1.45024   1.46463   1.47273   1.49371
 Alpha virt. eigenvalues --    1.49823   1.50474   1.51640   1.51872   1.52334
 Alpha virt. eigenvalues --    1.53716   1.54192   1.55432   1.56138   1.56453
 Alpha virt. eigenvalues --    1.56791   1.58489   1.59728   1.60389   1.60519
 Alpha virt. eigenvalues --    1.62131   1.63282   1.64924   1.66027   1.67546
 Alpha virt. eigenvalues --    1.68618   1.69175   1.70473   1.71323   1.74156
 Alpha virt. eigenvalues --    1.76826   1.77081   1.79016   1.79377   1.81045
 Alpha virt. eigenvalues --    1.82956   1.85920   1.88147   1.89703   1.90607
 Alpha virt. eigenvalues --    1.91368   1.94486   1.95004   1.97390   2.00540
 Alpha virt. eigenvalues --    2.00827   2.05447   2.07038   2.08352   2.08471
 Alpha virt. eigenvalues --    2.10896   2.13937   2.18606   2.20234   2.24594
 Alpha virt. eigenvalues --    2.27645   2.30686   2.37026   2.37402   2.38001
 Alpha virt. eigenvalues --    2.38278   2.39369   2.39931   2.40471   2.42149
 Alpha virt. eigenvalues --    2.42559   2.43756   2.45057   2.51009   2.54995
 Alpha virt. eigenvalues --    2.61156   2.64127   2.68330   2.71898   2.73263
 Alpha virt. eigenvalues --    2.76309   2.78780   2.81840   2.94680   2.99731
 Alpha virt. eigenvalues --    3.01878   3.09943   3.11453   3.15940   3.17850
 Alpha virt. eigenvalues --    3.24295   3.27131   3.35291   3.59304   3.74890
          Condensed to atoms (all electrons):
 Mulliken charges:
               1
     1  C    0.619118
     2  C   -0.109009
     3  S    0.374347
     4  S    0.297801
     5  C    1.040276
     6  C    1.130868
     7  C    0.787665
     8  N   -1.083885
     9  S    0.557446
    10  C   -1.129424
    11  N   -0.168028
    12  C   -1.100155
    13  N   -0.180631
    14  C   -0.853503
    15  N   -0.182886
 Sum of Mulliken charges =  -0.00000
 Mulliken charges with hydrogens summed into heavy atoms:
               1
     1  C    0.619118
     2  C   -0.109009
     3  S    0.374347
     4  S    0.297801
     5  C    1.040276
     6  C    1.130868
     7  C    0.787665
     8  N   -1.083885
     9  S    0.557446
    10  C   -1.129424
    11  N   -0.168028
    12  C   -1.100155
    13  N   -0.180631
    14  C   -0.853503
    15  N   -0.182886
 Electronic spatial extent (au):  <R**2>=          19303.3614
 Charge=             -0.0000 electrons
 Dipole moment (field-independent basis, Debye):
    X=             -0.0592    Y=             -3.8877    Z=              2.6145  Tot=              4.6854

 Test job not archived.
 1\1\GINC-CHIMERA-NODE23\SP\RM05\Gen\C8N4S3\CONNORNM\19-Jan-2019\0\\#T 
 M05/Gen test Massage SCF=(fermi,maxcyc=60)\\M05 opt\\0,1\C,0,-0.7277,-
 0.53391217,6.35672728\C,0,0.52303311,-1.20941937,6.28473166\S,0,-0.933
 19647,1.20936739,6.44195767\S,0,2.09194652,-0.39040437,6.23663327\C,0,
 0.45509855,1.74482436,5.47756935\C,0,1.6538999,1.10890887,5.39926941\C
 ,0,-1.75112879,-1.45786543,6.42158948\N,0,0.50153358,-2.51991,6.288209
 99\S,0,-1.07066082,-3.05214698,6.41408864\C,0,0.2212784,2.97362911,4.7
 9459302\N,0,-0.00802224,3.9886861,4.27664171\C,0,2.72474585,1.65107716
 ,4.62901982\N,0,3.63337525,2.07067858,4.03804317\C,0,-3.14420301,-1.22
 16323,6.51489835\N,0,-4.29004453,-1.04633947,6.60101194\\Version=AS64L
 -G09RevD.01\HF=-1724.7614614\RMSD=5.184e-09\Dipole=-0.0233082,-1.52951
 96,1.0286247\Quadrupole=-15.6848705,-6.2346732,21.9195437,-2.2931139,5
 .4608914,-10.2861767\PG=C01 [X(C8N4S3)]\\@


 K N O W I N G  IS A BARRIER WHICH PREVENTS LEARNING

                     -- TEACHING OF THE BENE GESSERIT
 Job cpu time:       0 days  1 hours 37 minutes 21.8 seconds.
 File lengths (MBytes):  RWF=     58 Int=      0 D2E=      0 Chk=      6 Scr=      1
 Normal termination of Gaussian 09 at Sat Jan 19 10:44:43 2019.
