 Entering Gaussian System, Link 0=/data/szalewicgrp/connornm/opt/Gaussian/g09-M05-par/g09/g09
 AtFile(1): blind-aug.gbs
 Initial command:
 /data/szalewicgrp/connornm/opt/Gaussian/g09-M05-par/g09/l1.exe "/scratch/local/Gau-34856.inp" -scrdir="/scratch/local/"
 Entering Link 1 = /data/szalewicgrp/connornm/opt/Gaussian/g09-M05-par/g09/l1.exe PID=     34857.
  
 Copyright (c) 1988,1990,1992,1993,1995,1998,2003,2009,2013,
            Gaussian, Inc.  All Rights Reserved.
  
 This is part of the Gaussian(R) 09 program.  It is based on
 the Gaussian(R) 03 system (copyright 2003, Gaussian, Inc.),
 the Gaussian(R) 98 system (copyright 1998, Gaussian, Inc.),
 the Gaussian(R) 94 system (copyright 1995, Gaussian, Inc.),
 the Gaussian 92(TM) system (copyright 1992, Gaussian, Inc.),
 the Gaussian 90(TM) system (copyright 1990, Gaussian, Inc.),
 the Gaussian 88(TM) system (copyright 1988, Gaussian, Inc.),
 the Gaussian 86(TM) system (copyright 1986, Carnegie Mellon
 University), and the Gaussian 82(TM) system (copyright 1983,
 Carnegie Mellon University). Gaussian is a federally registered
 trademark of Gaussian, Inc.
  
 This software contains proprietary and confidential information,
 including trade secrets, belonging to Gaussian, Inc.
  
 This software is provided under written license and may be
 used, copied, transmitted, or stored only in accord with that
 written license.
  
 The following legend is applicable only to US Government
 contracts under FAR:
  
                    RESTRICTED RIGHTS LEGEND
  
 Use, reproduction and disclosure by the US Government is
 subject to restrictions as set forth in subparagraphs (a)
 and (c) of the Commercial Computer Software - Restricted
 Rights clause in FAR 52.227-19.
  
 Gaussian, Inc.
 340 Quinnipiac St., Bldg. 40, Wallingford CT 06492
  
  
 ---------------------------------------------------------------
 Warning -- This program may not be used in any manner that
 competes with the business of Gaussian, Inc. or will provide
 assistance to any competitor of Gaussian, Inc.  The licensee
 of this program is prohibited from giving any competitor of
 Gaussian, Inc. access to this program.  By using this program,
 the user acknowledges that Gaussian, Inc. is engaged in the
 business of creating and licensing software in the field of
 computational chemistry and represents and warrants to the
 licensee that it is not a competitor of Gaussian, Inc. and that
 it will not use this program in any manner prohibited above.
 ---------------------------------------------------------------
  

 Cite this work as:
 Gaussian 09, Revision D.01,
 M. J. Frisch, G. W. Trucks, H. B. Schlegel, G. E. Scuseria, 
 M. A. Robb, J. R. Cheeseman, G. Scalmani, V. Barone, B. Mennucci, 
 G. A. Petersson, H. Nakatsuji, M. Caricato, X. Li, H. P. Hratchian, 
 A. F. Izmaylov, J. Bloino, G. Zheng, J. L. Sonnenberg, M. Hada, 
 M. Ehara, K. Toyota, R. Fukuda, J. Hasegawa, M. Ishida, T. Nakajima, 
 Y. Honda, O. Kitao, H. Nakai, T. Vreven, J. A. Montgomery, Jr., 
 J. E. Peralta, F. Ogliaro, M. Bearpark, J. J. Heyd, E. Brothers, 
 K. N. Kudin, V. N. Staroverov, T. Keith, R. Kobayashi, J. Normand, 
 K. Raghavachari, A. Rendell, J. C. Burant, S. S. Iyengar, J. Tomasi, 
 M. Cossi, N. Rega, J. M. Millam, M. Klene, J. E. Knox, J. B. Cross, 
 V. Bakken, C. Adamo, J. Jaramillo, R. Gomperts, R. E. Stratmann, 
 O. Yazyev, A. J. Austin, R. Cammi, C. Pomelli, J. W. Ochterski, 
 R. L. Martin, K. Morokuma, V. G. Zakrzewski, G. A. Voth, 
 P. Salvador, J. J. Dannenberg, S. Dapprich, A. D. Daniels, 
 O. Farkas, J. B. Foresman, J. V. Ortiz, J. Cioslowski, 
 and D. J. Fox, Gaussian, Inc., Wallingford CT, 2013.
 
 ******************************************
 Gaussian 09:  AS64L-G09RevD.01 24-Apr-2013
                19-Jan-2019 
 ******************************************
 %Chk=BLIND00133_mA
 %Mem=1GB
 %NProcShared=48
 Will use up to   48 processors via shared memory.
 ---------------------------------------------
 #T M05/Gen test Massage SCF=(fermi,maxcyc=60)
 ---------------------------------------------
 -------
 M05 opt
 -------
 Symbolic Z-matrix:
 Charge =  0 Multiplicity = 1
 6                    -0.53493  -0.85592  -0.14953 
 6                    -1.30515   0.21362   0.38776 
 16                    0.85031  -0.67021  -1.21495 
 16                   -0.96789   1.92617   0.09114 
 6                     1.51787   0.8578   -0.61188 
 6                     0.79406   1.88607  -0.09573 
 6                    -1.0842   -2.06239   0.23524 
 7                    -2.3462   -0.1012    1.11917 
 16                   -2.4982   -1.75732   1.19042 
 6                     2.93275   0.94651  -0.75788 
 7                     4.08334   0.98186  -0.91941 
 6                     1.42672   3.09519   0.31864 
 7                     1.89603   4.10836   0.6414 
 6                    -0.64483  -3.3701   -0.08413 
 7                    -0.30386  -4.45055  -0.34386 
 
                    Distance matrix (angstroms):
                    1          2          3          4          5
     1  C    0.000000
     2  C    1.423315   0.000000
     3  S    1.757418   2.827694   0.000000
     4  S    2.825849   1.770477   3.428253   0.000000
     5  C    2.713774   3.063280   1.773167   2.795470   0.000000
     6  C    3.047557   2.727187   2.791121   1.772288   1.359281
     7  C    1.380327   2.291783   2.789903   3.992857   4.001979
     8  N    2.336642   1.310672   3.998700   2.658358   4.341342
     9  S    2.542129   2.439721   4.263822   4.137445   5.120151
    10  C    3.955208   4.450782   2.675676   4.110426   1.425163
    11  N    5.029770   5.597745   3.642685   5.237162   2.586817
    12  C    4.436049   3.971317   4.106384   2.674416   2.424897
    13  N    5.583831   5.047859   5.232040   3.642352   3.504263
    14  C    2.517432   3.674472   3.286888   5.309014   4.778168
    15  N    3.607292   4.826214   4.047461   6.425950   5.618639
                    6          7          8          9         10
     6  C    0.000000
     7  C    4.384939   0.000000
     8  N    3.909794   2.494036   0.000000
     9  S    5.076167   1.733444   1.664607   0.000000
    10  C    2.428007   5.116215   5.699860   6.371958   0.000000
    11  N    3.509330   6.107712   6.831389   7.434461   1.162408
    12  C    1.426163   5.736923   5.009263   6.301738   2.836178
    13  N    2.587713   6.864751   5.995430   7.349618   3.609722
    14  C    5.449573   1.416040   3.876636   2.767765   5.646781
    15  N    6.435818   2.578302   5.022796   3.797715   6.306769
                   11         12         13         14         15
    11  N    0.000000
    12  C    3.613393   0.000000
    13  N    4.122555   1.162293   0.000000
    14  C    6.480188   6.800997   7.931563   0.000000
    15  N    7.006418   7.769948   8.891861   1.162367   0.000000
 Symmetry turned off by external request.
 Framework group  C1[X(C8N4S3)]
 Deg. of freedom    39
 Rotational constants (GHZ):      0.7722167      0.3388923      0.2463240
   357 basis functions,   759 primitive gaussians,   387 cartesian basis functions
    62 alpha electrons       62 beta electrons
       nuclear repulsion energy      1166.1400398430 Hartrees.
 IMHF & INEx in M05                  599485                  400514
 NAtoms=   15 NActive=   15 NUniq=   15 SFac= 1.00D+00 NAtFMM=   60 NAOKFM=F Big=F
 PrsmSu:  requested number of processors reduced to:  34 ShMem   1 Linda.
 ExpMin= 3.99D-02 ExpMax= 1.11D+05 ExpMxC= 1.07D+03 IAcc=3 IRadAn=         5 AccDes= 0.00D+00
 Harris functional with IExCor= 1009 and IRadAn=       5 diagonalized for initial guess.
 HarFok:  IExCor= 1009 AccDes= 0.00D+00 IRadAn=         5 IDoV= 1 UseB2=F ITyADJ=14
 ICtDFT=  3500011 ScaDFX=  1.000000  1.000000  1.000000  1.000000
 FoFCou: FMM=F IPFlag=           0 FMFlag=      100000 FMFlg1=           0
         NFxFlg=           0 DoJE=T BraDBF=F KetDBF=T FulRan=T
         wScrn=  0.000000 ICntrl=     500 IOpCl=  0 I1Cent=   200000004 NGrid=           0
         NMat0=    1 NMatS0=      1 NMatT0=    0 NMatD0=    1 NMtDS0=    0 NMtDT0=    0
 Symmetry not used in FoFCou.
 SCF Done:  E(RM05) =  -1724.76148637     A.U. after   17 cycles
            NFock= 17  Conv=0.51D-08     -V/T= 2.0061

 **********************************************************************

            Population analysis using the SCF density.

 **********************************************************************

 Alpha  occ. eigenvalues --  -90.56429 -90.53635 -90.53182 -15.08622 -15.05416
 Alpha  occ. eigenvalues --  -15.04969 -15.04934 -10.89945 -10.89826 -10.89736
 Alpha  occ. eigenvalues --  -10.88752 -10.87414 -10.84946 -10.84331 -10.84311
 Alpha  occ. eigenvalues --   -8.57524  -8.55035  -8.54609  -6.40062  -6.39711
 Alpha  occ. eigenvalues --   -6.39400  -6.37596  -6.37282  -6.37163  -6.36853
 Alpha  occ. eigenvalues --   -6.36821  -6.36393  -1.20533  -1.12895  -1.12139
 Alpha  occ. eigenvalues --   -1.11337  -1.07643  -1.03801  -0.98824  -0.97396
 Alpha  occ. eigenvalues --   -0.88002  -0.84555  -0.82236  -0.73686  -0.71296
 Alpha  occ. eigenvalues --   -0.67838  -0.64612  -0.59530  -0.57258  -0.55386
 Alpha  occ. eigenvalues --   -0.53384  -0.52647  -0.52242  -0.51890  -0.50883
 Alpha  occ. eigenvalues --   -0.50387  -0.49356  -0.48215  -0.46805  -0.46074
 Alpha  occ. eigenvalues --   -0.45933  -0.45296  -0.43720  -0.43113  -0.39488
 Alpha  occ. eigenvalues --   -0.37628  -0.33119
 Alpha virt. eigenvalues --   -0.09329  -0.08269  -0.02098  -0.01262  -0.00502
 Alpha virt. eigenvalues --   -0.00362   0.00153   0.01254   0.02021   0.02229
 Alpha virt. eigenvalues --    0.02394   0.02957   0.03189   0.04003   0.04276
 Alpha virt. eigenvalues --    0.04487   0.05427   0.06007   0.06297   0.07068
 Alpha virt. eigenvalues --    0.07270   0.07527   0.07706   0.08289   0.08491
 Alpha virt. eigenvalues --    0.09375   0.10096   0.10396   0.10526   0.10813
 Alpha virt. eigenvalues --    0.11286   0.11395   0.11980   0.12526   0.13224
 Alpha virt. eigenvalues --    0.13490   0.13938   0.14455   0.15074   0.15190
 Alpha virt. eigenvalues --    0.15902   0.16273   0.16677   0.16812   0.17188
 Alpha virt. eigenvalues --    0.17359   0.17838   0.18615   0.19049   0.19561
 Alpha virt. eigenvalues --    0.19861   0.20239   0.20686   0.20950   0.21263
 Alpha virt. eigenvalues --    0.21876   0.22201   0.22583   0.22822   0.23614
 Alpha virt. eigenvalues --    0.23746   0.24118   0.24371   0.24701   0.25260
 Alpha virt. eigenvalues --    0.25697   0.25850   0.26224   0.26621   0.26750
 Alpha virt. eigenvalues --    0.27064   0.28334   0.29197   0.29664   0.30369
 Alpha virt. eigenvalues --    0.30713   0.32420   0.33456   0.34153   0.34714
 Alpha virt. eigenvalues --    0.34948   0.35471   0.36122   0.36936   0.37595
 Alpha virt. eigenvalues --    0.38155   0.39576   0.40728   0.41171   0.42048
 Alpha virt. eigenvalues --    0.42119   0.43484   0.44134   0.45740   0.45980
 Alpha virt. eigenvalues --    0.46960   0.48560   0.49570   0.50235   0.50603
 Alpha virt. eigenvalues --    0.51525   0.51859   0.53528   0.54166   0.54425
 Alpha virt. eigenvalues --    0.54703   0.55462   0.55736   0.55837   0.56453
 Alpha virt. eigenvalues --    0.57772   0.58141   0.58557   0.59217   0.60310
 Alpha virt. eigenvalues --    0.60554   0.61103   0.61587   0.62101   0.62713
 Alpha virt. eigenvalues --    0.63716   0.64720   0.64956   0.66006   0.66559
 Alpha virt. eigenvalues --    0.67684   0.68190   0.68807   0.70106   0.70418
 Alpha virt. eigenvalues --    0.71045   0.72862   0.73469   0.73856   0.75365
 Alpha virt. eigenvalues --    0.75565   0.76457   0.77062   0.77552   0.77842
 Alpha virt. eigenvalues --    0.78245   0.79255   0.79760   0.79876   0.81110
 Alpha virt. eigenvalues --    0.81535   0.82546   0.83277   0.83955   0.84871
 Alpha virt. eigenvalues --    0.85697   0.85940   0.87122   0.87246   0.88404
 Alpha virt. eigenvalues --    0.88460   0.89345   0.89665   0.89831   0.90731
 Alpha virt. eigenvalues --    0.91172   0.91723   0.92831   0.93723   0.94367
 Alpha virt. eigenvalues --    0.95434   0.95565   0.97325   0.98743   0.99313
 Alpha virt. eigenvalues --    0.99847   1.01206   1.02844   1.03576   1.04751
 Alpha virt. eigenvalues --    1.05758   1.06742   1.08039   1.08542   1.09636
 Alpha virt. eigenvalues --    1.10232   1.11403   1.13194   1.13609   1.14404
 Alpha virt. eigenvalues --    1.15323   1.17106   1.18344   1.20286   1.20631
 Alpha virt. eigenvalues --    1.21611   1.22700   1.23938   1.24219   1.26561
 Alpha virt. eigenvalues --    1.27345   1.29757   1.30253   1.32274   1.34125
 Alpha virt. eigenvalues --    1.37313   1.40082   1.40256   1.41568   1.42726
 Alpha virt. eigenvalues --    1.43616   1.45024   1.46464   1.47271   1.49371
 Alpha virt. eigenvalues --    1.49822   1.50474   1.51640   1.51868   1.52334
 Alpha virt. eigenvalues --    1.53717   1.54190   1.55430   1.56137   1.56452
 Alpha virt. eigenvalues --    1.56789   1.58487   1.59728   1.60391   1.60515
 Alpha virt. eigenvalues --    1.62131   1.63280   1.64924   1.66029   1.67545
 Alpha virt. eigenvalues --    1.68613   1.69179   1.70472   1.71325   1.74153
 Alpha virt. eigenvalues --    1.76826   1.77079   1.79014   1.79375   1.81040
 Alpha virt. eigenvalues --    1.82958   1.85918   1.88152   1.89704   1.90607
 Alpha virt. eigenvalues --    1.91368   1.94486   1.95005   1.97392   2.00540
 Alpha virt. eigenvalues --    2.00826   2.05448   2.07038   2.08351   2.08475
 Alpha virt. eigenvalues --    2.10896   2.13936   2.18606   2.20234   2.24597
 Alpha virt. eigenvalues --    2.27646   2.30685   2.37026   2.37402   2.38001
 Alpha virt. eigenvalues --    2.38279   2.39369   2.39930   2.40470   2.42150
 Alpha virt. eigenvalues --    2.42558   2.43756   2.45057   2.51015   2.54995
 Alpha virt. eigenvalues --    2.61158   2.64126   2.68330   2.71899   2.73264
 Alpha virt. eigenvalues --    2.76309   2.78780   2.81841   2.94681   2.99730
 Alpha virt. eigenvalues --    3.01876   3.09943   3.11451   3.15939   3.17850
 Alpha virt. eigenvalues --    3.24294   3.27129   3.35293   3.59304   3.74889
          Condensed to atoms (all electrons):
 Mulliken charges:
               1
     1  C    0.620312
     2  C   -0.108814
     3  S    0.374564
     4  S    0.296530
     5  C    1.040124
     6  C    1.130877
     7  C    0.787074
     8  N   -1.083438
     9  S    0.557198
    10  C   -1.129868
    11  N   -0.167912
    12  C   -1.100185
    13  N   -0.180538
    14  C   -0.852909
    15  N   -0.183015
 Sum of Mulliken charges =  -0.00000
 Mulliken charges with hydrogens summed into heavy atoms:
               1
     1  C    0.620312
     2  C   -0.108814
     3  S    0.374564
     4  S    0.296530
     5  C    1.040124
     6  C    1.130877
     7  C    0.787074
     8  N   -1.083438
     9  S    0.557198
    10  C   -1.129868
    11  N   -0.167912
    12  C   -1.100185
    13  N   -0.180538
    14  C   -0.852909
    15  N   -0.183015
 Electronic spatial extent (au):  <R**2>=           4013.7183
 Charge=             -0.0000 electrons
 Dipole moment (field-independent basis, Debye):
    X=             -4.5581    Y=             -1.0843    Z=              0.0252  Tot=              4.6854

 Test job not archived.
 1\1\GINC-CHIMERA-NODE11\SP\RM05\Gen\C8N4S3\CONNORNM\19-Jan-2019\0\\#T 
 M05/Gen test Massage SCF=(fermi,maxcyc=60)\\M05 opt\\0,1\C,0,-0.534931
 38,-0.85592005,-0.14952656\C,0,-1.3051524,0.21361645,0.387761\S,0,0.85
 031048,-0.67020681,-1.21495239\S,0,-0.96789088,1.92617478,0.09113505\C
 ,0,1.51786656,0.857796,-0.6118783\C,0,0.79406168,1.88606605,-0.0957278
 8\C,0,-1.08420301,-2.06238578,0.23523875\N,0,-2.34620467,-0.10120381,1
 .11916951\S,0,-2.49820232,-1.75732489,1.19041955\C,0,2.93275296,0.9465
 061,-0.75788056\N,0,4.08334065,0.98185932,-0.91940806\C,0,1.42671552,3
 .09519268,0.31864375\N,0,1.89602574,4.10835721,0.64140012\C,0,-0.64482
 906,-3.37010181,-0.08413213\N,0,-0.30385855,-4.45055441,-0.34385741\\V
 ersion=AS64L-G09RevD.01\HF=-1724.7614864\RMSD=5.143e-09\Dipole=-1.7933
 126,-0.4266022,0.00992\Quadrupole=-1.205709,-9.3814953,10.5872043,-3.7
 121296,0.69132,-4.8757837\PG=C01 [X(C8N4S3)]\\@


 IT TAKES GREATER CHARACTER TO CARRY OFF GOOD FORTUNE THAN BAD.
                     FRENCH PROVERB.
 Job cpu time:       0 days  1 hours 37 minutes 39.8 seconds.
 File lengths (MBytes):  RWF=     58 Int=      0 D2E=      0 Chk=      6 Scr=      1
 Normal termination of Gaussian 09 at Sat Jan 19 11:02:32 2019.
