 Entering Gaussian System, Link 0=/data/szalewicgrp/connornm/opt/Gaussian/g09-M05-par/g09/g09
 AtFile(1): blind-aug.gbs
 Initial command:
 /data/szalewicgrp/connornm/opt/Gaussian/g09-M05-par/g09/l1.exe "/scratch/local/Gau-1467.inp" -scrdir="/scratch/local/"
 Entering Link 1 = /data/szalewicgrp/connornm/opt/Gaussian/g09-M05-par/g09/l1.exe PID=      1468.
  
 Copyright (c) 1988,1990,1992,1993,1995,1998,2003,2009,2013,
            Gaussian, Inc.  All Rights Reserved.
  
 This is part of the Gaussian(R) 09 program.  It is based on
 the Gaussian(R) 03 system (copyright 2003, Gaussian, Inc.),
 the Gaussian(R) 98 system (copyright 1998, Gaussian, Inc.),
 the Gaussian(R) 94 system (copyright 1995, Gaussian, Inc.),
 the Gaussian 92(TM) system (copyright 1992, Gaussian, Inc.),
 the Gaussian 90(TM) system (copyright 1990, Gaussian, Inc.),
 the Gaussian 88(TM) system (copyright 1988, Gaussian, Inc.),
 the Gaussian 86(TM) system (copyright 1986, Carnegie Mellon
 University), and the Gaussian 82(TM) system (copyright 1983,
 Carnegie Mellon University). Gaussian is a federally registered
 trademark of Gaussian, Inc.
  
 This software contains proprietary and confidential information,
 including trade secrets, belonging to Gaussian, Inc.
  
 This software is provided under written license and may be
 used, copied, transmitted, or stored only in accord with that
 written license.
  
 The following legend is applicable only to US Government
 contracts under FAR:
  
                    RESTRICTED RIGHTS LEGEND
  
 Use, reproduction and disclosure by the US Government is
 subject to restrictions as set forth in subparagraphs (a)
 and (c) of the Commercial Computer Software - Restricted
 Rights clause in FAR 52.227-19.
  
 Gaussian, Inc.
 340 Quinnipiac St., Bldg. 40, Wallingford CT 06492
  
  
 ---------------------------------------------------------------
 Warning -- This program may not be used in any manner that
 competes with the business of Gaussian, Inc. or will provide
 assistance to any competitor of Gaussian, Inc.  The licensee
 of this program is prohibited from giving any competitor of
 Gaussian, Inc. access to this program.  By using this program,
 the user acknowledges that Gaussian, Inc. is engaged in the
 business of creating and licensing software in the field of
 computational chemistry and represents and warrants to the
 licensee that it is not a competitor of Gaussian, Inc. and that
 it will not use this program in any manner prohibited above.
 ---------------------------------------------------------------
  

 Cite this work as:
 Gaussian 09, Revision D.01,
 M. J. Frisch, G. W. Trucks, H. B. Schlegel, G. E. Scuseria, 
 M. A. Robb, J. R. Cheeseman, G. Scalmani, V. Barone, B. Mennucci, 
 G. A. Petersson, H. Nakatsuji, M. Caricato, X. Li, H. P. Hratchian, 
 A. F. Izmaylov, J. Bloino, G. Zheng, J. L. Sonnenberg, M. Hada, 
 M. Ehara, K. Toyota, R. Fukuda, J. Hasegawa, M. Ishida, T. Nakajima, 
 Y. Honda, O. Kitao, H. Nakai, T. Vreven, J. A. Montgomery, Jr., 
 J. E. Peralta, F. Ogliaro, M. Bearpark, J. J. Heyd, E. Brothers, 
 K. N. Kudin, V. N. Staroverov, T. Keith, R. Kobayashi, J. Normand, 
 K. Raghavachari, A. Rendell, J. C. Burant, S. S. Iyengar, J. Tomasi, 
 M. Cossi, N. Rega, J. M. Millam, M. Klene, J. E. Knox, J. B. Cross, 
 V. Bakken, C. Adamo, J. Jaramillo, R. Gomperts, R. E. Stratmann, 
 O. Yazyev, A. J. Austin, R. Cammi, C. Pomelli, J. W. Ochterski, 
 R. L. Martin, K. Morokuma, V. G. Zakrzewski, G. A. Voth, 
 P. Salvador, J. J. Dannenberg, S. Dapprich, A. D. Daniels, 
 O. Farkas, J. B. Foresman, J. V. Ortiz, J. Cioslowski, 
 and D. J. Fox, Gaussian, Inc., Wallingford CT, 2013.
 
 ******************************************
 Gaussian 09:  AS64L-G09RevD.01 24-Apr-2013
                19-Jan-2019 
 ******************************************
 %Chk=BLIND01233_mB
 %Mem=1GB
 %NProcShared=48
 Will use up to   48 processors via shared memory.
 ---------------------------------------------
 #T M05/Gen test Massage SCF=(fermi,maxcyc=60)
 ---------------------------------------------
 -------
 M05 opt
 -------
 Symbolic Z-matrix:
 Charge =  0 Multiplicity = 1
 6                    -0.57489   0.0171    11.29292 
 6                    -0.50901   1.26946   10.6198 
 16                   -0.47167  -1.5561    10.51646 
 16                   -0.2775    1.44654   8.87348 
 6                     0.62577  -1.18174   9.17496 
 6                     0.69945   0.00957   8.5246 
 6                    -0.80373   0.22476   12.63822 
 7                    -0.6637    2.35152   11.34304 
 16                   -0.93972   1.9282    12.92908 
 6                     1.43036  -2.29122   8.78408 
 7                     2.04707  -3.23046   8.48628 
 6                     1.58688   0.19222   7.42322 
 7                     2.27318   0.3769    6.50354 
 6                    -0.94919  -0.74007   13.66443 
 7                    -1.08031  -1.5184    14.51772 
 
                    Distance matrix (angstroms):
                    1          2          3          4          5
     1  C    0.000000
     2  C    1.423315   0.000000
     3  S    1.757418   2.827694   0.000000
     4  S    2.825849   1.770477   3.428253   0.000000
     5  C    2.713774   3.063280   1.773167   2.795470   0.000000
     6  C    3.047557   2.727187   2.791121   1.772288   1.359281
     7  C    1.380327   2.291783   2.789903   3.992857   4.001979
     8  N    2.336642   1.310672   3.998700   2.658358   4.341342
     9  S    2.542129   2.439721   4.263822   4.137445   5.120151
    10  C    3.955208   4.450782   2.675676   4.110426   1.425163
    11  N    5.029770   5.597745   3.642685   5.237162   2.586817
    12  C    4.436049   3.971317   4.106384   2.674416   2.424897
    13  N    5.583831   5.047859   5.232040   3.642352   3.504263
    14  C    2.517432   3.674472   3.286888   5.309014   4.778168
    15  N    3.607292   4.826214   4.047461   6.425950   5.618639
                    6          7          8          9         10
     6  C    0.000000
     7  C    4.384939   0.000000
     8  N    3.909794   2.494036   0.000000
     9  S    5.076167   1.733444   1.664607   0.000000
    10  C    2.428007   5.116215   5.699860   6.371958   0.000000
    11  N    3.509330   6.107712   6.831389   7.434461   1.162408
    12  C    1.426163   5.736923   5.009263   6.301738   2.836178
    13  N    2.587713   6.864751   5.995430   7.349618   3.609722
    14  C    5.449573   1.416040   3.876636   2.767765   5.646781
    15  N    6.435818   2.578302   5.022796   3.797715   6.306769
                   11         12         13         14         15
    11  N    0.000000
    12  C    3.613393   0.000000
    13  N    4.122555   1.162293   0.000000
    14  C    6.480188   6.800997   7.931563   0.000000
    15  N    7.006418   7.769948   8.891861   1.162367   0.000000
 Symmetry turned off by external request.
 Framework group  C1[X(C8N4S3)]
 Deg. of freedom    39
 Rotational constants (GHZ):      0.7722167      0.3388923      0.2463240
   357 basis functions,   759 primitive gaussians,   387 cartesian basis functions
    62 alpha electrons       62 beta electrons
       nuclear repulsion energy      1166.1400398303 Hartrees.
 IMHF & INEx in M05                  599485                  400514
 NAtoms=   15 NActive=   15 NUniq=   15 SFac= 1.00D+00 NAtFMM=   60 NAOKFM=F Big=F
 PrsmSu:  requested number of processors reduced to:  34 ShMem   1 Linda.
 ExpMin= 3.99D-02 ExpMax= 1.11D+05 ExpMxC= 1.07D+03 IAcc=3 IRadAn=         5 AccDes= 0.00D+00
 Harris functional with IExCor= 1009 and IRadAn=       5 diagonalized for initial guess.
 HarFok:  IExCor= 1009 AccDes= 0.00D+00 IRadAn=         5 IDoV= 1 UseB2=F ITyADJ=14
 ICtDFT=  3500011 ScaDFX=  1.000000  1.000000  1.000000  1.000000
 FoFCou: FMM=F IPFlag=           0 FMFlag=      100000 FMFlg1=           0
         NFxFlg=           0 DoJE=T BraDBF=F KetDBF=T FulRan=T
         wScrn=  0.000000 ICntrl=     500 IOpCl=  0 I1Cent=   200000004 NGrid=           0
         NMat0=    1 NMatS0=      1 NMatT0=    0 NMatD0=    1 NMtDS0=    0 NMtDT0=    0
 Symmetry not used in FoFCou.
 SCF Done:  E(RM05) =  -1724.76149695     A.U. after   17 cycles
            NFock= 17  Conv=0.51D-08     -V/T= 2.0061

 **********************************************************************

            Population analysis using the SCF density.

 **********************************************************************

 Alpha  occ. eigenvalues --  -90.56431 -90.53635 -90.53182 -15.08622 -15.05417
 Alpha  occ. eigenvalues --  -15.04969 -15.04934 -10.89945 -10.89826 -10.89736
 Alpha  occ. eigenvalues --  -10.88752 -10.87414 -10.84947 -10.84332 -10.84310
 Alpha  occ. eigenvalues --   -8.57526  -8.55035  -8.54609  -6.40064  -6.39713
 Alpha  occ. eigenvalues --   -6.39402  -6.37596  -6.37282  -6.37163  -6.36853
 Alpha  occ. eigenvalues --   -6.36821  -6.36393  -1.20534  -1.12895  -1.12140
 Alpha  occ. eigenvalues --   -1.11337  -1.07643  -1.03801  -0.98824  -0.97396
 Alpha  occ. eigenvalues --   -0.88002  -0.84555  -0.82236  -0.73686  -0.71297
 Alpha  occ. eigenvalues --   -0.67839  -0.64612  -0.59530  -0.57258  -0.55386
 Alpha  occ. eigenvalues --   -0.53385  -0.52648  -0.52243  -0.51890  -0.50883
 Alpha  occ. eigenvalues --   -0.50387  -0.49357  -0.48215  -0.46805  -0.46074
 Alpha  occ. eigenvalues --   -0.45933  -0.45296  -0.43720  -0.43113  -0.39488
 Alpha  occ. eigenvalues --   -0.37628  -0.33120
 Alpha virt. eigenvalues --   -0.09329  -0.08269  -0.02098  -0.01262  -0.00503
 Alpha virt. eigenvalues --   -0.00361   0.00154   0.01255   0.02023   0.02229
 Alpha virt. eigenvalues --    0.02395   0.02957   0.03190   0.04002   0.04278
 Alpha virt. eigenvalues --    0.04488   0.05428   0.06007   0.06298   0.07068
 Alpha virt. eigenvalues --    0.07272   0.07527   0.07707   0.08289   0.08492
 Alpha virt. eigenvalues --    0.09373   0.10091   0.10391   0.10525   0.10814
 Alpha virt. eigenvalues --    0.11286   0.11393   0.11978   0.12529   0.13224
 Alpha virt. eigenvalues --    0.13488   0.13937   0.14454   0.15075   0.15191
 Alpha virt. eigenvalues --    0.15899   0.16278   0.16677   0.16812   0.17190
 Alpha virt. eigenvalues --    0.17361   0.17841   0.18612   0.19048   0.19564
 Alpha virt. eigenvalues --    0.19871   0.20242   0.20687   0.20944   0.21270
 Alpha virt. eigenvalues --    0.21881   0.22209   0.22583   0.22819   0.23611
 Alpha virt. eigenvalues --    0.23749   0.24110   0.24366   0.24704   0.25259
 Alpha virt. eigenvalues --    0.25694   0.25853   0.26221   0.26620   0.26749
 Alpha virt. eigenvalues --    0.27070   0.28334   0.29193   0.29662   0.30373
 Alpha virt. eigenvalues --    0.30707   0.32418   0.33457   0.34155   0.34715
 Alpha virt. eigenvalues --    0.34950   0.35471   0.36119   0.36933   0.37593
 Alpha virt. eigenvalues --    0.38151   0.39575   0.40728   0.41168   0.42048
 Alpha virt. eigenvalues --    0.42121   0.43484   0.44134   0.45736   0.45973
 Alpha virt. eigenvalues --    0.46961   0.48558   0.49574   0.50237   0.50603
 Alpha virt. eigenvalues --    0.51522   0.51856   0.53530   0.54166   0.54423
 Alpha virt. eigenvalues --    0.54703   0.55463   0.55734   0.55836   0.56448
 Alpha virt. eigenvalues --    0.57775   0.58137   0.58552   0.59212   0.60309
 Alpha virt. eigenvalues --    0.60550   0.61104   0.61586   0.62104   0.62709
 Alpha virt. eigenvalues --    0.63721   0.64719   0.64954   0.66007   0.66556
 Alpha virt. eigenvalues --    0.67691   0.68188   0.68808   0.70104   0.70415
 Alpha virt. eigenvalues --    0.71045   0.72862   0.73467   0.73856   0.75370
 Alpha virt. eigenvalues --    0.75564   0.76452   0.77062   0.77554   0.77840
 Alpha virt. eigenvalues --    0.78242   0.79254   0.79759   0.79876   0.81106
 Alpha virt. eigenvalues --    0.81537   0.82548   0.83282   0.83956   0.84870
 Alpha virt. eigenvalues --    0.85697   0.85938   0.87125   0.87247   0.88405
 Alpha virt. eigenvalues --    0.88458   0.89344   0.89666   0.89830   0.90729
 Alpha virt. eigenvalues --    0.91170   0.91724   0.92829   0.93721   0.94369
 Alpha virt. eigenvalues --    0.95430   0.95563   0.97322   0.98747   0.99310
 Alpha virt. eigenvalues --    0.99843   1.01206   1.02845   1.03573   1.04752
 Alpha virt. eigenvalues --    1.05758   1.06743   1.08039   1.08544   1.09635
 Alpha virt. eigenvalues --    1.10232   1.11400   1.13196   1.13611   1.14402
 Alpha virt. eigenvalues --    1.15324   1.17100   1.18342   1.20285   1.20634
 Alpha virt. eigenvalues --    1.21607   1.22701   1.23937   1.24223   1.26558
 Alpha virt. eigenvalues --    1.27343   1.29755   1.30248   1.32272   1.34129
 Alpha virt. eigenvalues --    1.37314   1.40083   1.40262   1.41565   1.42728
 Alpha virt. eigenvalues --    1.43619   1.45022   1.46464   1.47272   1.49370
 Alpha virt. eigenvalues --    1.49821   1.50473   1.51644   1.51871   1.52333
 Alpha virt. eigenvalues --    1.53714   1.54193   1.55432   1.56136   1.56451
 Alpha virt. eigenvalues --    1.56790   1.58488   1.59725   1.60387   1.60516
 Alpha virt. eigenvalues --    1.62133   1.63283   1.64919   1.66028   1.67545
 Alpha virt. eigenvalues --    1.68614   1.69175   1.70469   1.71325   1.74154
 Alpha virt. eigenvalues --    1.76827   1.77077   1.79017   1.79376   1.81046
 Alpha virt. eigenvalues --    1.82959   1.85921   1.88152   1.89705   1.90607
 Alpha virt. eigenvalues --    1.91371   1.94486   1.95006   1.97391   2.00540
 Alpha virt. eigenvalues --    2.00828   2.05447   2.07035   2.08350   2.08475
 Alpha virt. eigenvalues --    2.10896   2.13938   2.18608   2.20234   2.24598
 Alpha virt. eigenvalues --    2.27645   2.30687   2.37025   2.37402   2.38001
 Alpha virt. eigenvalues --    2.38279   2.39369   2.39930   2.40471   2.42150
 Alpha virt. eigenvalues --    2.42559   2.43755   2.45058   2.51015   2.54996
 Alpha virt. eigenvalues --    2.61153   2.64131   2.68330   2.71899   2.73263
 Alpha virt. eigenvalues --    2.76308   2.78780   2.81840   2.94680   2.99730
 Alpha virt. eigenvalues --    3.01875   3.09942   3.11449   3.15941   3.17850
 Alpha virt. eigenvalues --    3.24294   3.27131   3.35292   3.59309   3.74897
          Condensed to atoms (all electrons):
 Mulliken charges:
               1
     1  C    0.619587
     2  C   -0.109146
     3  S    0.373658
     4  S    0.296915
     5  C    1.041024
     6  C    1.130358
     7  C    0.787171
     8  N   -1.083362
     9  S    0.557716
    10  C   -1.129965
    11  N   -0.168044
    12  C   -1.099379
    13  N   -0.180723
    14  C   -0.852991
    15  N   -0.182819
 Sum of Mulliken charges =  -0.00000
 Mulliken charges with hydrogens summed into heavy atoms:
               1
     1  C    0.619587
     2  C   -0.109146
     3  S    0.373658
     4  S    0.296915
     5  C    1.041024
     6  C    1.130358
     7  C    0.787171
     8  N   -1.083362
     9  S    0.557716
    10  C   -1.129965
    11  N   -0.168044
    12  C   -1.099379
    13  N   -0.180723
    14  C   -0.852991
    15  N   -0.182819
 Electronic spatial extent (au):  <R**2>=          52340.4979
 Charge=              0.0000 electrons
 Dipole moment (field-independent basis, Debye):
    X=             -3.0415    Y=              3.0444    Z=              1.8538  Tot=              4.6857

 Test job not archived.
 1\1\GINC-CHIMERA-NODE31\SP\RM05\Gen\C8N4S3\CONNORNM\19-Jan-2019\0\\#T 
 M05/Gen test Massage SCF=(fermi,maxcyc=60)\\M05 opt\\0,1\C,0,-0.574888
 43,0.01710488,11.29292463\C,0,-0.50901327,1.26945941,10.61980112\S,0,-
 0.47166579,-1.55609905,10.51646398\S,0,-0.27750128,1.44653729,8.873481
 01\C,0,0.62576667,-1.18174469,9.17496375\C,0,0.69944516,0.00957491,8.5
 2459989\C,0,-0.80372592,0.22475772,12.63821899\N,0,-0.66370457,2.35152
 073,11.34303961\S,0,-0.9397183,1.9282043,12.92908391\C,0,1.43035554,-2
 .29122048,8.78408027\N,0,2.04707043,-3.23046105,8.48628349\C,0,1.58688
 301,0.19221787,7.42322005\N,0,2.27318235,0.37690073,6.5035399\C,0,-0.9
 4919185,-0.74007197,13.66443133\N,0,-1.08030555,-1.51840204,14.5177234
 3\\Version=AS64L-G09RevD.01\HF=-1724.7614969\RMSD=5.120e-09\Dipole=-1.
 1966254,1.1977516,0.7293291\Quadrupole=-5.2476545,-8.6035736,13.851228
 1,2.3944015,-14.1066167,27.8997882\PG=C01 [X(C8N4S3)]\\@


0EVERYBODY IS IGNORANT, ONLY ON DIFFERENT SUBJECTS.
0          WILL ROGERS
 Job cpu time:       0 days  1 hours 58 minutes  4.3 seconds.
 File lengths (MBytes):  RWF=     58 Int=      0 D2E=      0 Chk=      6 Scr=      1
 Normal termination of Gaussian 09 at Sat Jan 19 10:43:26 2019.
