 Entering Gaussian System, Link 0=/data/szalewicgrp/connornm/opt/Gaussian/g09-M05-par/g09/g09
 AtFile(1): blind-aug.gbs
 Initial command:
 /data/szalewicgrp/connornm/opt/Gaussian/g09-M05-par/g09/l1.exe "/scratch/local/Gau-44338.inp" -scrdir="/scratch/local/"
 Entering Link 1 = /data/szalewicgrp/connornm/opt/Gaussian/g09-M05-par/g09/l1.exe PID=     44339.
  
 Copyright (c) 1988,1990,1992,1993,1995,1998,2003,2009,2013,
            Gaussian, Inc.  All Rights Reserved.
  
 This is part of the Gaussian(R) 09 program.  It is based on
 the Gaussian(R) 03 system (copyright 2003, Gaussian, Inc.),
 the Gaussian(R) 98 system (copyright 1998, Gaussian, Inc.),
 the Gaussian(R) 94 system (copyright 1995, Gaussian, Inc.),
 the Gaussian 92(TM) system (copyright 1992, Gaussian, Inc.),
 the Gaussian 90(TM) system (copyright 1990, Gaussian, Inc.),
 the Gaussian 88(TM) system (copyright 1988, Gaussian, Inc.),
 the Gaussian 86(TM) system (copyright 1986, Carnegie Mellon
 University), and the Gaussian 82(TM) system (copyright 1983,
 Carnegie Mellon University). Gaussian is a federally registered
 trademark of Gaussian, Inc.
  
 This software contains proprietary and confidential information,
 including trade secrets, belonging to Gaussian, Inc.
  
 This software is provided under written license and may be
 used, copied, transmitted, or stored only in accord with that
 written license.
  
 The following legend is applicable only to US Government
 contracts under FAR:
  
                    RESTRICTED RIGHTS LEGEND
  
 Use, reproduction and disclosure by the US Government is
 subject to restrictions as set forth in subparagraphs (a)
 and (c) of the Commercial Computer Software - Restricted
 Rights clause in FAR 52.227-19.
  
 Gaussian, Inc.
 340 Quinnipiac St., Bldg. 40, Wallingford CT 06492
  
  
 ---------------------------------------------------------------
 Warning -- This program may not be used in any manner that
 competes with the business of Gaussian, Inc. or will provide
 assistance to any competitor of Gaussian, Inc.  The licensee
 of this program is prohibited from giving any competitor of
 Gaussian, Inc. access to this program.  By using this program,
 the user acknowledges that Gaussian, Inc. is engaged in the
 business of creating and licensing software in the field of
 computational chemistry and represents and warrants to the
 licensee that it is not a competitor of Gaussian, Inc. and that
 it will not use this program in any manner prohibited above.
 ---------------------------------------------------------------
  

 Cite this work as:
 Gaussian 09, Revision D.01,
 M. J. Frisch, G. W. Trucks, H. B. Schlegel, G. E. Scuseria, 
 M. A. Robb, J. R. Cheeseman, G. Scalmani, V. Barone, B. Mennucci, 
 G. A. Petersson, H. Nakatsuji, M. Caricato, X. Li, H. P. Hratchian, 
 A. F. Izmaylov, J. Bloino, G. Zheng, J. L. Sonnenberg, M. Hada, 
 M. Ehara, K. Toyota, R. Fukuda, J. Hasegawa, M. Ishida, T. Nakajima, 
 Y. Honda, O. Kitao, H. Nakai, T. Vreven, J. A. Montgomery, Jr., 
 J. E. Peralta, F. Ogliaro, M. Bearpark, J. J. Heyd, E. Brothers, 
 K. N. Kudin, V. N. Staroverov, T. Keith, R. Kobayashi, J. Normand, 
 K. Raghavachari, A. Rendell, J. C. Burant, S. S. Iyengar, J. Tomasi, 
 M. Cossi, N. Rega, J. M. Millam, M. Klene, J. E. Knox, J. B. Cross, 
 V. Bakken, C. Adamo, J. Jaramillo, R. Gomperts, R. E. Stratmann, 
 O. Yazyev, A. J. Austin, R. Cammi, C. Pomelli, J. W. Ochterski, 
 R. L. Martin, K. Morokuma, V. G. Zakrzewski, G. A. Voth, 
 P. Salvador, J. J. Dannenberg, S. Dapprich, A. D. Daniels, 
 O. Farkas, J. B. Foresman, J. V. Ortiz, J. Cioslowski, 
 and D. J. Fox, Gaussian, Inc., Wallingford CT, 2013.
 
 ******************************************
 Gaussian 09:  AS64L-G09RevD.01 24-Apr-2013
                19-Jan-2019 
 ******************************************
 %Chk=BLIND01263_mB
 %Mem=1GB
 %NProcShared=48
 Will use up to   48 processors via shared memory.
 ---------------------------------------------
 #T M05/Gen test Massage SCF=(fermi,maxcyc=60)
 ---------------------------------------------
 -------
 M05 opt
 -------
 Symbolic Z-matrix:
 Charge =  0 Multiplicity = 1
 6                     0.5289    0.69892   9.58416 
 6                    -0.02246   1.19031   8.36746 
 16                   -0.17696  -0.56827   10.57639 
 16                   -1.51035   0.57409   7.63191 
 6                    -0.93243  -1.57318   9.32598 
 6                    -1.46149  -1.117     8.15994 
 6                     1.66344   1.4175    9.90317 
 7                     0.60045   2.18319   7.78091 
 16                    1.91748   2.63331   8.69401 
 6                    -0.9844   -2.95424   9.67393 
 7                    -1.02497  -4.06564   10.01207 
 6                    -2.09071  -2.00705   7.24025 
 7                    -2.63794  -2.69076   6.47604 
 6                     2.51074   1.26911   11.028 
 7                     3.2117    1.16756   11.94965 
 
                    Distance matrix (angstroms):
                    1          2          3          4          5
     1  C    0.000000
     2  C    1.423315   0.000000
     3  S    1.757418   2.827694   0.000000
     4  S    2.825849   1.770477   3.428253   0.000000
     5  C    2.713774   3.063280   1.773167   2.795470   0.000000
     6  C    3.047557   2.727187   2.791121   1.772288   1.359281
     7  C    1.380327   2.291783   2.789903   3.992857   4.001979
     8  N    2.336642   1.310672   3.998700   2.658358   4.341342
     9  S    2.542129   2.439721   4.263822   4.137445   5.120151
    10  C    3.955208   4.450782   2.675676   4.110426   1.425163
    11  N    5.029770   5.597745   3.642685   5.237162   2.586817
    12  C    4.436049   3.971317   4.106384   2.674416   2.424897
    13  N    5.583831   5.047859   5.232040   3.642352   3.504263
    14  C    2.517432   3.674472   3.286888   5.309014   4.778168
    15  N    3.607292   4.826214   4.047461   6.425950   5.618639
                    6          7          8          9         10
     6  C    0.000000
     7  C    4.384939   0.000000
     8  N    3.909794   2.494036   0.000000
     9  S    5.076167   1.733444   1.664607   0.000000
    10  C    2.428007   5.116215   5.699860   6.371958   0.000000
    11  N    3.509330   6.107712   6.831389   7.434461   1.162408
    12  C    1.426163   5.736923   5.009263   6.301738   2.836178
    13  N    2.587713   6.864751   5.995430   7.349618   3.609722
    14  C    5.449573   1.416040   3.876636   2.767765   5.646781
    15  N    6.435818   2.578302   5.022796   3.797715   6.306769
                   11         12         13         14         15
    11  N    0.000000
    12  C    3.613393   0.000000
    13  N    4.122555   1.162293   0.000000
    14  C    6.480188   6.800997   7.931563   0.000000
    15  N    7.006418   7.769948   8.891861   1.162367   0.000000
 Symmetry turned off by external request.
 Framework group  C1[X(C8N4S3)]
 Deg. of freedom    39
 Rotational constants (GHZ):      0.7722167      0.3388923      0.2463240
   357 basis functions,   759 primitive gaussians,   387 cartesian basis functions
    62 alpha electrons       62 beta electrons
       nuclear repulsion energy      1166.1400400716 Hartrees.
 IMHF & INEx in M05                  599485                  400514
 NAtoms=   15 NActive=   15 NUniq=   15 SFac= 1.00D+00 NAtFMM=   60 NAOKFM=F Big=F
 PrsmSu:  requested number of processors reduced to:  34 ShMem   1 Linda.
 ExpMin= 3.99D-02 ExpMax= 1.11D+05 ExpMxC= 1.07D+03 IAcc=3 IRadAn=         5 AccDes= 0.00D+00
 Harris functional with IExCor= 1009 and IRadAn=       5 diagonalized for initial guess.
 HarFok:  IExCor= 1009 AccDes= 0.00D+00 IRadAn=         5 IDoV= 1 UseB2=F ITyADJ=14
 ICtDFT=  3500011 ScaDFX=  1.000000  1.000000  1.000000  1.000000
 FoFCou: FMM=F IPFlag=           0 FMFlag=      100000 FMFlg1=           0
         NFxFlg=           0 DoJE=T BraDBF=F KetDBF=T FulRan=T
         wScrn=  0.000000 ICntrl=     500 IOpCl=  0 I1Cent=   200000004 NGrid=           0
         NMat0=    1 NMatS0=      1 NMatT0=    0 NMatD0=    1 NMtDS0=    0 NMtDT0=    0
 Symmetry not used in FoFCou.
 SCF Done:  E(RM05) =  -1724.76148653     A.U. after   17 cycles
            NFock= 17  Conv=0.52D-08     -V/T= 2.0061

 **********************************************************************

            Population analysis using the SCF density.

 **********************************************************************

 Alpha  occ. eigenvalues --  -90.56432 -90.53635 -90.53182 -15.08621 -15.05417
 Alpha  occ. eigenvalues --  -15.04969 -15.04934 -10.89944 -10.89826 -10.89736
 Alpha  occ. eigenvalues --  -10.88751 -10.87414 -10.84946 -10.84331 -10.84311
 Alpha  occ. eigenvalues --   -8.57527  -8.55035  -8.54609  -6.40065  -6.39714
 Alpha  occ. eigenvalues --   -6.39402  -6.37596  -6.37282  -6.37163  -6.36853
 Alpha  occ. eigenvalues --   -6.36821  -6.36392  -1.20533  -1.12895  -1.12139
 Alpha  occ. eigenvalues --   -1.11337  -1.07643  -1.03801  -0.98824  -0.97396
 Alpha  occ. eigenvalues --   -0.88003  -0.84555  -0.82236  -0.73686  -0.71296
 Alpha  occ. eigenvalues --   -0.67839  -0.64612  -0.59530  -0.57258  -0.55386
 Alpha  occ. eigenvalues --   -0.53384  -0.52648  -0.52243  -0.51890  -0.50883
 Alpha  occ. eigenvalues --   -0.50387  -0.49356  -0.48215  -0.46804  -0.46074
 Alpha  occ. eigenvalues --   -0.45933  -0.45296  -0.43720  -0.43113  -0.39488
 Alpha  occ. eigenvalues --   -0.37627  -0.33119
 Alpha virt. eigenvalues --   -0.09329  -0.08269  -0.02099  -0.01262  -0.00503
 Alpha virt. eigenvalues --   -0.00362   0.00153   0.01254   0.02020   0.02229
 Alpha virt. eigenvalues --    0.02395   0.02955   0.03188   0.04002   0.04278
 Alpha virt. eigenvalues --    0.04489   0.05427   0.06007   0.06297   0.07067
 Alpha virt. eigenvalues --    0.07270   0.07526   0.07707   0.08286   0.08491
 Alpha virt. eigenvalues --    0.09377   0.10092   0.10394   0.10525   0.10814
 Alpha virt. eigenvalues --    0.11286   0.11394   0.11976   0.12527   0.13230
 Alpha virt. eigenvalues --    0.13491   0.13936   0.14455   0.15079   0.15190
 Alpha virt. eigenvalues --    0.15902   0.16268   0.16678   0.16811   0.17189
 Alpha virt. eigenvalues --    0.17361   0.17838   0.18611   0.19045   0.19563
 Alpha virt. eigenvalues --    0.19860   0.20237   0.20684   0.20945   0.21271
 Alpha virt. eigenvalues --    0.21880   0.22204   0.22582   0.22828   0.23614
 Alpha virt. eigenvalues --    0.23745   0.24119   0.24372   0.24701   0.25260
 Alpha virt. eigenvalues --    0.25698   0.25848   0.26220   0.26628   0.26748
 Alpha virt. eigenvalues --    0.27065   0.28337   0.29194   0.29664   0.30367
 Alpha virt. eigenvalues --    0.30712   0.32420   0.33457   0.34151   0.34716
 Alpha virt. eigenvalues --    0.34949   0.35473   0.36120   0.36934   0.37594
 Alpha virt. eigenvalues --    0.38152   0.39578   0.40728   0.41167   0.42050
 Alpha virt. eigenvalues --    0.42119   0.43483   0.44136   0.45737   0.45983
 Alpha virt. eigenvalues --    0.46957   0.48552   0.49569   0.50236   0.50593
 Alpha virt. eigenvalues --    0.51523   0.51857   0.53527   0.54166   0.54424
 Alpha virt. eigenvalues --    0.54702   0.55465   0.55731   0.55836   0.56453
 Alpha virt. eigenvalues --    0.57769   0.58141   0.58557   0.59215   0.60313
 Alpha virt. eigenvalues --    0.60555   0.61102   0.61586   0.62104   0.62710
 Alpha virt. eigenvalues --    0.63714   0.64717   0.64953   0.66008   0.66558
 Alpha virt. eigenvalues --    0.67691   0.68191   0.68808   0.70108   0.70416
 Alpha virt. eigenvalues --    0.71048   0.72862   0.73465   0.73854   0.75368
 Alpha virt. eigenvalues --    0.75564   0.76459   0.77063   0.77551   0.77842
 Alpha virt. eigenvalues --    0.78245   0.79256   0.79758   0.79881   0.81108
 Alpha virt. eigenvalues --    0.81534   0.82548   0.83277   0.83957   0.84871
 Alpha virt. eigenvalues --    0.85700   0.85940   0.87123   0.87246   0.88403
 Alpha virt. eigenvalues --    0.88459   0.89343   0.89664   0.89830   0.90732
 Alpha virt. eigenvalues --    0.91170   0.91721   0.92831   0.93721   0.94368
 Alpha virt. eigenvalues --    0.95434   0.95567   0.97324   0.98742   0.99314
 Alpha virt. eigenvalues --    0.99847   1.01204   1.02847   1.03575   1.04749
 Alpha virt. eigenvalues --    1.05759   1.06745   1.08041   1.08540   1.09638
 Alpha virt. eigenvalues --    1.10232   1.11401   1.13196   1.13608   1.14402
 Alpha virt. eigenvalues --    1.15323   1.17098   1.18342   1.20285   1.20632
 Alpha virt. eigenvalues --    1.21609   1.22699   1.23936   1.24220   1.26560
 Alpha virt. eigenvalues --    1.27346   1.29757   1.30251   1.32270   1.34126
 Alpha virt. eigenvalues --    1.37309   1.40082   1.40258   1.41568   1.42730
 Alpha virt. eigenvalues --    1.43616   1.45023   1.46465   1.47275   1.49370
 Alpha virt. eigenvalues --    1.49823   1.50475   1.51642   1.51867   1.52334
 Alpha virt. eigenvalues --    1.53716   1.54193   1.55431   1.56137   1.56449
 Alpha virt. eigenvalues --    1.56788   1.58491   1.59724   1.60390   1.60519
 Alpha virt. eigenvalues --    1.62130   1.63281   1.64922   1.66030   1.67545
 Alpha virt. eigenvalues --    1.68614   1.69176   1.70470   1.71329   1.74151
 Alpha virt. eigenvalues --    1.76827   1.77079   1.79016   1.79378   1.81041
 Alpha virt. eigenvalues --    1.82962   1.85920   1.88149   1.89702   1.90609
 Alpha virt. eigenvalues --    1.91368   1.94487   1.95008   1.97394   2.00539
 Alpha virt. eigenvalues --    2.00828   2.05449   2.07035   2.08350   2.08474
 Alpha virt. eigenvalues --    2.10893   2.13936   2.18607   2.20231   2.24594
 Alpha virt. eigenvalues --    2.27646   2.30686   2.37025   2.37401   2.38001
 Alpha virt. eigenvalues --    2.38279   2.39370   2.39930   2.40471   2.42148
 Alpha virt. eigenvalues --    2.42560   2.43755   2.45055   2.51017   2.54996
 Alpha virt. eigenvalues --    2.61162   2.64126   2.68330   2.71897   2.73263
 Alpha virt. eigenvalues --    2.76307   2.78779   2.81842   2.94681   2.99730
 Alpha virt. eigenvalues --    3.01875   3.09942   3.11449   3.15939   3.17850
 Alpha virt. eigenvalues --    3.24293   3.27128   3.35290   3.59300   3.74896
          Condensed to atoms (all electrons):
 Mulliken charges:
               1
     1  C    0.619559
     2  C   -0.109867
     3  S    0.374163
     4  S    0.297017
     5  C    1.040681
     6  C    1.130861
     7  C    0.787784
     8  N   -1.083206
     9  S    0.557114
    10  C   -1.129696
    11  N   -0.167920
    12  C   -1.099999
    13  N   -0.180361
    14  C   -0.853139
    15  N   -0.182990
 Sum of Mulliken charges =  -0.00000
 Mulliken charges with hydrogens summed into heavy atoms:
               1
     1  C    0.619559
     2  C   -0.109867
     3  S    0.374163
     4  S    0.297017
     5  C    1.040681
     6  C    1.130861
     7  C    0.787784
     8  N   -1.083206
     9  S    0.557114
    10  C   -1.129696
    11  N   -0.167920
    12  C   -1.099999
    13  N   -0.180361
    14  C   -0.853139
    15  N   -0.182990
 Electronic spatial extent (au):  <R**2>=          40379.8688
 Charge=             -0.0000 electrons
 Dipole moment (field-independent basis, Debye):
    X=              0.5075    Y=              4.6487    Z=             -0.2958  Tot=              4.6856

 Test job not archived.
 1\1\GINC-CHIMERA-NODE56\SP\RM05\Gen\C8N4S3\CONNORNM\19-Jan-2019\0\\#T 
 M05/Gen test Massage SCF=(fermi,maxcyc=60)\\M05 opt\\0,1\C,0,0.5288967
 8,0.69891786,9.58416454\C,0,-0.02245791,1.19030934,8.36746035\S,0,-0.1
 7696189,-0.56826871,10.57639352\S,0,-1.51035235,0.5740941,7.631908\C,0
 ,-0.93243163,-1.57318028,9.32597748\C,0,-1.46148949,-1.11699923,8.1599
 4116\C,0,1.66343772,1.41749588,9.90317192\N,0,0.60044879,2.18318826,7.
 78091223\S,0,1.91747877,2.63331064,8.69400519\C,0,-0.98440153,-2.95423
 688,9.67393072\N,0,-1.02497456,-4.06563504,10.01207415\C,0,-2.09070796
 ,-2.0070472,7.2402452\N,0,-2.63793952,-2.69075728,6.47604347\C,0,2.510
 73874,1.26910711,11.02799644\N,0,3.21169964,1.16755734,11.94964571\\Ve
 rsion=AS64L-G09RevD.01\HF=-1724.7614865\RMSD=5.166e-09\Dipole=0.199648
 5,1.8289255,-0.1163749\Quadrupole=5.0897567,-1.4222826,-3.6674742,-5.0
 507168,-6.3685777,28.8442193\PG=C01 [X(C8N4S3)]\\@


 Just remember, when you're over the hill, you begin to pick up speed.
 -- Charles Schulz
 Job cpu time:       0 days  1 hours 37 minutes 17.0 seconds.
 File lengths (MBytes):  RWF=     58 Int=      0 D2E=      0 Chk=      6 Scr=      1
 Normal termination of Gaussian 09 at Sat Jan 19 10:50:56 2019.
