 Entering Gaussian System, Link 0=/data/szalewicgrp/connornm/opt/Gaussian/g09-M05-par/g09/g09
 AtFile(1): blind-aug.gbs
 Initial command:
 /data/szalewicgrp/connornm/opt/Gaussian/g09-M05-par/g09/l1.exe "/scratch/local/Gau-34126.inp" -scrdir="/scratch/local/"
 Entering Link 1 = /data/szalewicgrp/connornm/opt/Gaussian/g09-M05-par/g09/l1.exe PID=     34127.
  
 Copyright (c) 1988,1990,1992,1993,1995,1998,2003,2009,2013,
            Gaussian, Inc.  All Rights Reserved.
  
 This is part of the Gaussian(R) 09 program.  It is based on
 the Gaussian(R) 03 system (copyright 2003, Gaussian, Inc.),
 the Gaussian(R) 98 system (copyright 1998, Gaussian, Inc.),
 the Gaussian(R) 94 system (copyright 1995, Gaussian, Inc.),
 the Gaussian 92(TM) system (copyright 1992, Gaussian, Inc.),
 the Gaussian 90(TM) system (copyright 1990, Gaussian, Inc.),
 the Gaussian 88(TM) system (copyright 1988, Gaussian, Inc.),
 the Gaussian 86(TM) system (copyright 1986, Carnegie Mellon
 University), and the Gaussian 82(TM) system (copyright 1983,
 Carnegie Mellon University). Gaussian is a federally registered
 trademark of Gaussian, Inc.
  
 This software contains proprietary and confidential information,
 including trade secrets, belonging to Gaussian, Inc.
  
 This software is provided under written license and may be
 used, copied, transmitted, or stored only in accord with that
 written license.
  
 The following legend is applicable only to US Government
 contracts under FAR:
  
                    RESTRICTED RIGHTS LEGEND
  
 Use, reproduction and disclosure by the US Government is
 subject to restrictions as set forth in subparagraphs (a)
 and (c) of the Commercial Computer Software - Restricted
 Rights clause in FAR 52.227-19.
  
 Gaussian, Inc.
 340 Quinnipiac St., Bldg. 40, Wallingford CT 06492
  
  
 ---------------------------------------------------------------
 Warning -- This program may not be used in any manner that
 competes with the business of Gaussian, Inc. or will provide
 assistance to any competitor of Gaussian, Inc.  The licensee
 of this program is prohibited from giving any competitor of
 Gaussian, Inc. access to this program.  By using this program,
 the user acknowledges that Gaussian, Inc. is engaged in the
 business of creating and licensing software in the field of
 computational chemistry and represents and warrants to the
 licensee that it is not a competitor of Gaussian, Inc. and that
 it will not use this program in any manner prohibited above.
 ---------------------------------------------------------------
  

 Cite this work as:
 Gaussian 09, Revision D.01,
 M. J. Frisch, G. W. Trucks, H. B. Schlegel, G. E. Scuseria, 
 M. A. Robb, J. R. Cheeseman, G. Scalmani, V. Barone, B. Mennucci, 
 G. A. Petersson, H. Nakatsuji, M. Caricato, X. Li, H. P. Hratchian, 
 A. F. Izmaylov, J. Bloino, G. Zheng, J. L. Sonnenberg, M. Hada, 
 M. Ehara, K. Toyota, R. Fukuda, J. Hasegawa, M. Ishida, T. Nakajima, 
 Y. Honda, O. Kitao, H. Nakai, T. Vreven, J. A. Montgomery, Jr., 
 J. E. Peralta, F. Ogliaro, M. Bearpark, J. J. Heyd, E. Brothers, 
 K. N. Kudin, V. N. Staroverov, T. Keith, R. Kobayashi, J. Normand, 
 K. Raghavachari, A. Rendell, J. C. Burant, S. S. Iyengar, J. Tomasi, 
 M. Cossi, N. Rega, J. M. Millam, M. Klene, J. E. Knox, J. B. Cross, 
 V. Bakken, C. Adamo, J. Jaramillo, R. Gomperts, R. E. Stratmann, 
 O. Yazyev, A. J. Austin, R. Cammi, C. Pomelli, J. W. Ochterski, 
 R. L. Martin, K. Morokuma, V. G. Zakrzewski, G. A. Voth, 
 P. Salvador, J. J. Dannenberg, S. Dapprich, A. D. Daniels, 
 O. Farkas, J. B. Foresman, J. V. Ortiz, J. Cioslowski, 
 and D. J. Fox, Gaussian, Inc., Wallingford CT, 2013.
 
 ******************************************
 Gaussian 09:  AS64L-G09RevD.01 24-Apr-2013
                19-Jan-2019 
 ******************************************
 %Chk=BLIND01088
 %Mem=1GB
 %NProcShared=48
 Will use up to   48 processors via shared memory.
 ---------------------------------------------
 #T M05/Gen test Massage SCF=(fermi,maxcyc=60)
 ---------------------------------------------
 -------
 M05 opt
 -------
 Symbolic Z-matrix:
 Charge =  0 Multiplicity = 1
 6                    -0.59626   0.01066  -0.82793 
 6                    -0.04522  -1.26882  -0.53616 
 16                    0.1712    1.54971  -0.46625 
 16                    1.50736  -1.51864   0.27728 
 6                     1.03935   1.13455   1.02308 
 6                     1.56921  -0.08283   1.31441 
 6                    -1.79118  -0.1414   -1.50198 
 7                    -0.72221  -2.32044  -0.92814 
 16                   -2.09761  -1.8324   -1.72877 
 6                     1.18406   2.23861   1.91257 
 7                     1.29744   3.17368   2.59373 
 6                     2.29241  -0.29934   2.52438 
 7                     2.91345  -0.51314   3.4833 
 6                    -2.66009   0.86509  -1.98898 
 7                    -3.38023   1.67791  -2.40346 
 6                    -0.39936  -0.33546   9.28165 
 6                    -1.25369   0.5494    8.56542 
 16                    0.76878  -1.42678   8.5516 
 16                   -1.25462   0.71827   6.80302 
 6                     1.24929  -0.48071   7.13097 
 6                     0.44415   0.36809   6.43892 
 6                    -0.67766  -0.25815   10.63142 
 7                    -2.11203   1.25397   9.26163 
 16                   -1.97199   0.86888   10.87501 
 6                     2.5937   -0.72395   6.72542 
 7                     3.68706  -0.973     6.41926 
 6                     0.91726   1.0472    5.27749 
 7                     1.2509    1.59841   4.31014 
 6                    -0.07498  -0.97191   11.69561 
 7                     0.40204  -1.55566   12.58035 
 
                    Distance matrix (angstroms):
                    1          2          3          4          5
     1  C    0.000000
     2  C    1.423315   0.000000
     3  S    1.757418   2.827694   0.000000
     4  S    2.825849   1.770477   3.428253   0.000000
     5  C    2.713774   3.063280   1.773167   2.795470   0.000000
     6  C    3.047557   2.727187   2.791121   1.772288   1.359281
     7  C    1.380327   2.291783   2.789903   3.992857   4.001979
     8  N    2.336642   1.310672   3.998700   2.658358   4.341342
     9  S    2.542129   2.439721   4.263822   4.137445   5.120151
    10  C    3.955208   4.450782   2.675676   4.110426   1.425163
    11  N    5.029770   5.597745   3.642685   5.237162   2.586817
    12  C    4.436049   3.971317   4.106384   2.674416   2.424897
    13  N    5.583831   5.047859   5.232040   3.642352   3.504263
    14  C    2.517432   3.674472   3.286888   5.309014   4.778168
    15  N    3.607292   4.826214   4.047461   6.425950   5.618639
    16  C   10.117422   9.868436   9.944897   9.279777   8.510868
    17  C    9.431733   9.359763   9.197940   8.977391   7.904900
    18  S    9.586716   9.125509   9.515156   8.307728   7.956901
    19  S    7.691917   7.699010   7.454297   7.430855   6.232441
    20  C    8.184837   7.815480   7.937418   6.936640   6.321352
    21  C    7.349649   7.181275   7.010856   6.531157   5.502099
    22  C   11.462792  11.231041  11.275957  10.656990   9.859412
    23  N   10.278257  10.326316   9.996610  10.075011   8.821517
    24  S   11.814743  11.768481  11.562055  11.406936  10.305312
    25  C    8.232169   7.745409   7.922004   6.587126   6.195706
    26  N    8.475622   7.899070   8.132377   6.540090   6.369533
    27  C    6.375055   6.331574   5.813748   5.651004   4.257061
    28  N    5.686185   5.778195   4.897139   5.103503   3.326363
    29  C   12.572833  12.235406  12.422959  11.540406  10.935346
    30  N   13.536319  13.127268  13.413068  12.352680  11.883349
                    6          7          8          9         10
     6  C    0.000000
     7  C    4.384939   0.000000
     8  N    3.909794   2.494036   0.000000
     9  S    5.076167   1.733444   1.664607   0.000000
    10  C    2.428007   5.116215   5.699860   6.371958   0.000000
    11  N    3.509330   6.107712   6.831389   7.434461   1.162408
    12  C    1.426163   5.736923   5.009263   6.301738   2.836178
    13  N    2.587713   6.864751   5.995430   7.349618   3.609722
    14  C    5.449573   1.416040   3.876636   2.767765   5.646781
    15  N    6.435818   2.578302   5.022796   3.797715   6.306769
    16  C    8.210729  10.874809  10.405975  11.240744   7.964695
    17  C    7.806775  10.105378   9.932083  10.599794   7.283992
    18  S    7.404312  10.453707   9.637799  10.680202   7.595012
    19  S    6.224199   8.366595   8.323949   8.944722   5.672308
    20  C    5.838925   9.159003   8.498274   9.566805   5.884779
    21  C    5.265903   8.265236   7.928569   8.832547   4.953195
    22  C    9.585714  12.184943  11.742169  12.540687   9.258409
    23  N    8.859846  10.858414  10.887581  11.415548   8.114331
    24  S   10.239684  12.419471  12.290170  12.890622   9.600117
    25  C    5.544338   9.341127   8.492412   9.731928   5.824718
    26  N    5.597965   9.666887   8.674188  10.029525   6.073686
    27  C    4.172292   7.396594   7.248358   8.152866   3.579570
    28  N    3.449972   6.786889   6.833016   7.710473   2.482465
    29  C   10.548134  13.334589  12.712060  13.603137  10.373061
    30  N   11.421602  14.322091  13.576752  14.528447  11.349429
                   11         12         13         14         15
    11  N    0.000000
    12  C    3.613393   0.000000
    13  N    4.122555   1.162293   0.000000
    14  C    6.480188   6.800997   7.931563   0.000000
    15  N    7.006418   7.769948   8.891861   1.162367   0.000000
    16  C    7.740890   7.273761   6.680356  11.557651  12.226251
    17  C    7.004013   7.056157   6.657480  10.652372  11.229972
    18  S    7.545850   6.318219   5.578709  11.318725  12.118863
    19  S    5.500918   5.650104   5.468978   8.904838   9.497290
    20  C    5.826095   4.726693   4.009485  10.013381  10.816539
    21  C    4.835792   4.380083   3.950913   8.995152   9.722618
    22  C    8.960070   8.634065   8.003545  12.824433  13.452153
    23  N    7.731142   8.197700   7.859209  11.270658  11.741485
    24  S    9.196787   9.448964   8.967441  12.882384  13.377432
    25  C    5.826031   4.233175   3.264661  10.298936  11.171096
    26  N    6.126980   4.191529   3.070796  10.694078  11.610961
    27  C    3.445142   3.359132   3.104597   8.101367   8.824020
    28  N    2.330163   2.806263   2.811832   7.450665   8.156355
    29  C   10.095222   9.495695   8.751181  14.047246  14.721752
    30  N   11.086068  10.308943   9.494752  15.083168  15.788486
                   16         17         18         19         20
    16  C    0.000000
    17  C    1.423315   0.000000
    18  S    1.757418   2.827694   0.000000
    19  S    2.825849   1.770477   3.428253   0.000000
    20  C    2.713774   3.063280   1.773167   2.795470   0.000000
    21  C    3.047557   2.727187   2.791121   1.772288   1.359281
    22  C    1.380327   2.291783   2.789903   3.992857   4.001979
    23  N    2.336642   1.310672   3.998700   2.658358   4.341342
    24  S    2.542129   2.439721   4.263822   4.137445   5.120151
    25  C    3.955208   4.450782   2.675676   4.110426   1.425163
    26  N    5.029770   5.597745   3.642685   5.237162   2.586817
    27  C    4.436049   3.971317   4.106384   2.674416   2.424897
    28  N    5.583831   5.047859   5.232040   3.642352   3.504263
    29  C    2.517432   3.674472   3.286888   5.309014   4.778168
    30  N    3.607292   4.826214   4.047461   6.425950   5.618639
                   21         22         23         24         25
    21  C    0.000000
    22  C    4.384939   0.000000
    23  N    3.909794   2.494036   0.000000
    24  S    5.076167   1.733444   1.664607   0.000000
    25  C    2.428007   5.116215   5.699860   6.371958   0.000000
    26  N    3.509330   6.107712   6.831389   7.434461   1.162408
    27  C    1.426163   5.736923   5.009263   6.301738   2.836178
    28  N    2.587713   6.864751   5.995430   7.349618   3.609722
    29  C    5.449573   1.416040   3.876636   2.767765   5.646781
    30  N    6.435818   2.578302   5.022796   3.797715   6.306769
                   26         27         28         29         30
    26  N    0.000000
    27  C    3.613393   0.000000
    28  N    4.122555   1.162293   0.000000
    29  C    6.480188   6.800997   7.931563   0.000000
    30  N    7.006418   7.769948   8.891861   1.162367   0.000000
 Symmetry turned off by external request.
 Framework group  C1[X(C16N8S6)]
 Deg. of freedom    84
 Rotational constants (GHZ):      0.2246640      0.0438213      0.0416917
   714 basis functions,  1518 primitive gaussians,   774 cartesian basis functions
   124 alpha electrons      124 beta electrons
       nuclear repulsion energy      3349.8252057659 Hartrees.
 IMHF & INEx in M05                  599485                  400514
 NAtoms=   30 NActive=   30 NUniq=   30 SFac= 1.00D+00 NAtFMM=   60 NAOKFM=F Big=F
 PrsmSu:  requested number of processors reduced to:  26 ShMem   1 Linda.
 ExpMin= 3.99D-02 ExpMax= 1.11D+05 ExpMxC= 1.07D+03 IAcc=3 IRadAn=         5 AccDes= 0.00D+00
 Harris functional with IExCor= 1009 and IRadAn=       5 diagonalized for initial guess.
 HarFok:  IExCor= 1009 AccDes= 0.00D+00 IRadAn=         5 IDoV= 1 UseB2=F ITyADJ=14
 ICtDFT=  3500011 ScaDFX=  1.000000  1.000000  1.000000  1.000000
 FoFCou: FMM=F IPFlag=           0 FMFlag=      100000 FMFlg1=           0
         NFxFlg=           0 DoJE=T BraDBF=F KetDBF=T FulRan=T
         wScrn=  0.000000 ICntrl=     500 IOpCl=  0 I1Cent=   200000004 NGrid=           0
         NMat0=    1 NMatS0=      1 NMatT0=    0 NMatD0=    1 NMtDS0=    0 NMtDT0=    0
 Symmetry not used in FoFCou.
 Restarting incremental Fock formation.
 SCF Done:  E(RM05) =  -3449.47579499     A.U. after   24 cycles
            NFock= 24  Conv=0.91D-08     -V/T= 2.0059

 **********************************************************************

            Population analysis using the SCF density.

 **********************************************************************

 Alpha  occ. eigenvalues --  -90.56059 -90.55942 -90.53159 -90.52904 -90.52696
 Alpha  occ. eigenvalues --  -90.52448 -15.08245 -15.08121 -15.05084 -15.05014
 Alpha  occ. eigenvalues --  -15.03856 -15.03544 -15.03145 -15.02907 -10.89347
 Alpha  occ. eigenvalues --  -10.89310 -10.89192 -10.89167 -10.88920 -10.88808
 Alpha  occ. eigenvalues --  -10.88367 -10.88236 -10.87024 -10.86876 -10.84632
 Alpha  occ. eigenvalues --  -10.84579 -10.83361 -10.83161 -10.83062 -10.82073
 Alpha  occ. eigenvalues --   -8.57156  -8.57043  -8.54557  -8.54299  -8.54125
 Alpha  occ. eigenvalues --   -8.53872  -6.39694  -6.39581  -6.39343  -6.39231
 Alpha  occ. eigenvalues --   -6.39031  -6.38918  -6.37118  -6.36860  -6.36804
 Alpha  occ. eigenvalues --   -6.36680  -6.36546  -6.36425  -6.36371  -6.36346
 Alpha  occ. eigenvalues --   -6.36117  -6.36088  -6.35911  -6.35657  -1.20154
 Alpha  occ. eigenvalues --   -1.20033  -1.12460  -1.11816  -1.11755  -1.11507
 Alpha  occ. eigenvalues --   -1.10432  -1.09864  -1.07043  -1.06533  -1.03379
 Alpha  occ. eigenvalues --   -1.03216  -0.98318  -0.98085  -0.96904  -0.96659
 Alpha  occ. eigenvalues --   -0.87521  -0.87298  -0.84016  -0.83760  -0.81774
 Alpha  occ. eigenvalues --   -0.81563  -0.73039  -0.72650  -0.70865  -0.70650
 Alpha  occ. eigenvalues --   -0.67385  -0.67204  -0.64152  -0.63991  -0.59127
 Alpha  occ. eigenvalues --   -0.58980  -0.57167  -0.56473  -0.55128  -0.54881
 Alpha  occ. eigenvalues --   -0.54461  -0.52911  -0.52309  -0.52233  -0.52039
 Alpha  occ. eigenvalues --   -0.51672  -0.51383  -0.50881  -0.50343  -0.49970
 Alpha  occ. eigenvalues --   -0.49868  -0.49714  -0.49004  -0.48765  -0.48036
 Alpha  occ. eigenvalues --   -0.47088  -0.46478  -0.46288  -0.45884  -0.44938
 Alpha  occ. eigenvalues --   -0.44769  -0.44299  -0.43497  -0.43352  -0.43266
 Alpha  occ. eigenvalues --   -0.42503  -0.42226  -0.40624  -0.38833  -0.38404
 Alpha  occ. eigenvalues --   -0.37191  -0.37032  -0.32638  -0.32350
 Alpha virt. eigenvalues --   -0.08788  -0.08340  -0.07904  -0.07738  -0.01670
 Alpha virt. eigenvalues --   -0.01498  -0.00911  -0.00841  -0.00750  -0.00225
 Alpha virt. eigenvalues --   -0.00023   0.00521   0.00609   0.00839   0.01631
 Alpha virt. eigenvalues --    0.01812   0.01910   0.02349   0.02693   0.02770
 Alpha virt. eigenvalues --    0.02967   0.03200   0.03339   0.03488   0.03579
 Alpha virt. eigenvalues --    0.03883   0.04157   0.04494   0.04595   0.04975
 Alpha virt. eigenvalues --    0.05358   0.05744   0.06079   0.06131   0.06405
 Alpha virt. eigenvalues --    0.06806   0.06970   0.07299   0.07517   0.07857
 Alpha virt. eigenvalues --    0.07898   0.08245   0.08365   0.08509   0.08849
 Alpha virt. eigenvalues --    0.09158   0.09336   0.09696   0.09749   0.09920
 Alpha virt. eigenvalues --    0.10330   0.10547   0.10715   0.10774   0.11102
 Alpha virt. eigenvalues --    0.11613   0.11736   0.11809   0.12058   0.12332
 Alpha virt. eigenvalues --    0.12474   0.12792   0.12979   0.13339   0.13740
 Alpha virt. eigenvalues --    0.13889   0.14090   0.14191   0.14285   0.14403
 Alpha virt. eigenvalues --    0.14573   0.15213   0.15329   0.15518   0.15779
 Alpha virt. eigenvalues --    0.16046   0.16193   0.16520   0.16566   0.16830
 Alpha virt. eigenvalues --    0.16983   0.17041   0.17377   0.17445   0.17552
 Alpha virt. eigenvalues --    0.17864   0.18277   0.18422   0.18592   0.18808
 Alpha virt. eigenvalues --    0.19150   0.19324   0.19790   0.19980   0.20066
 Alpha virt. eigenvalues --    0.20217   0.20422   0.20877   0.21073   0.21216
 Alpha virt. eigenvalues --    0.21337   0.21645   0.21772   0.22036   0.22193
 Alpha virt. eigenvalues --    0.22386   0.22667   0.22813   0.23016   0.23022
 Alpha virt. eigenvalues --    0.23457   0.23605   0.23782   0.23865   0.24301
 Alpha virt. eigenvalues --    0.24734   0.24808   0.24937   0.25229   0.25379
 Alpha virt. eigenvalues --    0.25619   0.25655   0.25762   0.26084   0.26387
 Alpha virt. eigenvalues --    0.26675   0.26779   0.26956   0.27005   0.27184
 Alpha virt. eigenvalues --    0.27767   0.27810   0.27936   0.28453   0.28877
 Alpha virt. eigenvalues --    0.29473   0.29724   0.29947   0.30022   0.30445
 Alpha virt. eigenvalues --    0.30474   0.30705   0.31048   0.31177   0.31632
 Alpha virt. eigenvalues --    0.32196   0.32255   0.32664   0.33666   0.33858
 Alpha virt. eigenvalues --    0.34309   0.34446   0.34877   0.35202   0.35366
 Alpha virt. eigenvalues --    0.35488   0.35788   0.36117   0.36318   0.36811
 Alpha virt. eigenvalues --    0.36969   0.37156   0.37659   0.37910   0.38525
 Alpha virt. eigenvalues --    0.38756   0.39842   0.40076   0.40178   0.40587
 Alpha virt. eigenvalues --    0.40983   0.41345   0.41826   0.41966   0.42176
 Alpha virt. eigenvalues --    0.42717   0.43594   0.43757   0.44034   0.44967
 Alpha virt. eigenvalues --    0.45565   0.45844   0.46370   0.46513   0.46916
 Alpha virt. eigenvalues --    0.47490   0.47797   0.48606   0.48801   0.49808
 Alpha virt. eigenvalues --    0.50230   0.50490   0.51036   0.51283   0.51893
 Alpha virt. eigenvalues --    0.51986   0.52139   0.52301   0.52664   0.52759
 Alpha virt. eigenvalues --    0.53384   0.53642   0.54207   0.54284   0.54908
 Alpha virt. eigenvalues --    0.55133   0.55592   0.55735   0.56000   0.56325
 Alpha virt. eigenvalues --    0.56486   0.56766   0.57221   0.57757   0.57961
 Alpha virt. eigenvalues --    0.58189   0.58380   0.58942   0.59152   0.59457
 Alpha virt. eigenvalues --    0.59805   0.60278   0.60456   0.60607   0.61098
 Alpha virt. eigenvalues --    0.61578   0.61837   0.62393   0.62781   0.63068
 Alpha virt. eigenvalues --    0.63358   0.63862   0.64028   0.64069   0.64510
 Alpha virt. eigenvalues --    0.64776   0.65516   0.66007   0.66099   0.66438
 Alpha virt. eigenvalues --    0.66951   0.67197   0.67473   0.68087   0.68371
 Alpha virt. eigenvalues --    0.68796   0.69079   0.69140   0.69540   0.69862
 Alpha virt. eigenvalues --    0.70232   0.70441   0.71446   0.71563   0.71829
 Alpha virt. eigenvalues --    0.72442   0.72809   0.73222   0.73533   0.74432
 Alpha virt. eigenvalues --    0.74556   0.74905   0.75069   0.75500   0.75994
 Alpha virt. eigenvalues --    0.76092   0.76801   0.77181   0.77328   0.77471
 Alpha virt. eigenvalues --    0.77865   0.78068   0.78311   0.78634   0.78841
 Alpha virt. eigenvalues --    0.79257   0.79574   0.79761   0.79897   0.80132
 Alpha virt. eigenvalues --    0.80362   0.81202   0.81612   0.81881   0.82081
 Alpha virt. eigenvalues --    0.82564   0.82955   0.83390   0.83773   0.84146
 Alpha virt. eigenvalues --    0.84509   0.84814   0.85257   0.85720   0.86142
 Alpha virt. eigenvalues --    0.86244   0.86558   0.86804   0.87299   0.87469
 Alpha virt. eigenvalues --    0.87983   0.88087   0.88154   0.88580   0.89133
 Alpha virt. eigenvalues --    0.89584   0.89924   0.90244   0.90813   0.90916
 Alpha virt. eigenvalues --    0.91169   0.91648   0.91680   0.91986   0.92421
 Alpha virt. eigenvalues --    0.92461   0.92899   0.93438   0.93856   0.94413
 Alpha virt. eigenvalues --    0.94608   0.95172   0.95356   0.95505   0.95921
 Alpha virt. eigenvalues --    0.96231   0.97685   0.97813   0.98168   0.98485
 Alpha virt. eigenvalues --    0.99132   0.99451   0.99818   1.00583   1.00814
 Alpha virt. eigenvalues --    1.01146   1.01827   1.02041   1.02352   1.03308
 Alpha virt. eigenvalues --    1.04350   1.04503   1.05128   1.05652   1.05704
 Alpha virt. eigenvalues --    1.06358   1.06652   1.07133   1.07540   1.07548
 Alpha virt. eigenvalues --    1.08210   1.08520   1.09317   1.09628   1.09737
 Alpha virt. eigenvalues --    1.11085   1.11269   1.11682   1.11894   1.12166
 Alpha virt. eigenvalues --    1.12628   1.13784   1.14318   1.14602   1.15568
 Alpha virt. eigenvalues --    1.15897   1.16145   1.16493   1.17567   1.18191
 Alpha virt. eigenvalues --    1.18601   1.19234   1.19369   1.20564   1.21523
 Alpha virt. eigenvalues --    1.21974   1.22191   1.23157   1.23651   1.24255
 Alpha virt. eigenvalues --    1.24530   1.25044   1.26070   1.26548   1.27646
 Alpha virt. eigenvalues --    1.28445   1.28706   1.28774   1.29307   1.30264
 Alpha virt. eigenvalues --    1.31220   1.31685   1.32491   1.33243   1.34035
 Alpha virt. eigenvalues --    1.34341   1.35498   1.37212   1.38618   1.39539
 Alpha virt. eigenvalues --    1.40439   1.41164   1.41915   1.42121   1.42502
 Alpha virt. eigenvalues --    1.42986   1.43686   1.44221   1.44676   1.45504
 Alpha virt. eigenvalues --    1.45797   1.46284   1.46978   1.47679   1.48107
 Alpha virt. eigenvalues --    1.48272   1.48558   1.51023   1.51493   1.51894
 Alpha virt. eigenvalues --    1.52323   1.53090   1.53453   1.53502   1.53696
 Alpha virt. eigenvalues --    1.54420   1.55013   1.55426   1.55832   1.56067
 Alpha virt. eigenvalues --    1.56641   1.57395   1.57454   1.58431   1.58599
 Alpha virt. eigenvalues --    1.58966   1.59839   1.60674   1.61151   1.61284
 Alpha virt. eigenvalues --    1.61674   1.61784   1.62164   1.62239   1.62987
 Alpha virt. eigenvalues --    1.63645   1.63876   1.64505   1.64739   1.65860
 Alpha virt. eigenvalues --    1.66326   1.67038   1.67582   1.68222   1.68664
 Alpha virt. eigenvalues --    1.69078   1.69497   1.70202   1.70600   1.71566
 Alpha virt. eigenvalues --    1.71908   1.72358   1.72772   1.73719   1.75132
 Alpha virt. eigenvalues --    1.76128   1.76745   1.77411   1.79181   1.79432
 Alpha virt. eigenvalues --    1.79665   1.80414   1.80740   1.81587   1.82252
 Alpha virt. eigenvalues --    1.82473   1.83147   1.83304   1.83957   1.84919
 Alpha virt. eigenvalues --    1.86225   1.87296   1.89079   1.89941   1.90391
 Alpha virt. eigenvalues --    1.90903   1.92754   1.92947   1.94100   1.94618
 Alpha virt. eigenvalues --    1.95180   1.95723   1.96909   1.97714   1.97789
 Alpha virt. eigenvalues --    1.99493   2.00617   2.01079   2.02938   2.04345
 Alpha virt. eigenvalues --    2.06817   2.07138   2.07520   2.08476   2.09020
 Alpha virt. eigenvalues --    2.09862   2.10257   2.11451   2.12373   2.13081
 Alpha virt. eigenvalues --    2.14077   2.18226   2.19626   2.20621   2.21669
 Alpha virt. eigenvalues --    2.23634   2.23806   2.27207   2.28496   2.31125
 Alpha virt. eigenvalues --    2.33613   2.34246   2.34991   2.36200   2.37916
 Alpha virt. eigenvalues --    2.38217   2.38577   2.38609   2.39251   2.39653
 Alpha virt. eigenvalues --    2.41170   2.42048   2.42578   2.43190   2.43448
 Alpha virt. eigenvalues --    2.44191   2.44958   2.46097   2.46677   2.47728
 Alpha virt. eigenvalues --    2.48438   2.49853   2.51600   2.52991   2.53261
 Alpha virt. eigenvalues --    2.54927   2.56051   2.56627   2.58228   2.60451
 Alpha virt. eigenvalues --    2.68057   2.68691   2.69725   2.72092   2.72571
 Alpha virt. eigenvalues --    2.73549   2.73802   2.74382   2.74992   2.76048
 Alpha virt. eigenvalues --    2.77686   2.77901   2.82880   2.84055   2.87989
 Alpha virt. eigenvalues --    2.90273   2.95225   2.95294   3.02316   3.02681
 Alpha virt. eigenvalues --    3.03466   3.03770   3.11811   3.12264   3.16152
 Alpha virt. eigenvalues --    3.16787   3.17929   3.18322   3.23964   3.32269
 Alpha virt. eigenvalues --    3.34234   3.36024   3.36922   3.40749   3.42626
 Alpha virt. eigenvalues --    3.49288   3.65494   3.66926   3.84424   3.87674
          Condensed to atoms (all electrons):
 Mulliken charges:
               1
     1  C    0.529496
     2  C    0.074622
     3  S    0.303910
     4  S    0.233733
     5  C    1.071009
     6  C    1.290476
     7  C    0.831657
     8  N   -1.101592
     9  S    0.539431
    10  C   -1.067881
    11  N   -0.072021
    12  C   -1.388048
    13  N   -0.082564
    14  C   -0.881642
    15  N   -0.179224
    16  C    0.567029
    17  C   -0.137160
    18  S    0.350869
    19  S    0.277519
    20  C    1.040807
    21  C    1.541553
    22  C    0.871682
    23  N   -1.091291
    24  S    0.551273
    25  C   -1.241585
    26  N   -0.106903
    27  C   -1.690175
    28  N    0.011064
    29  C   -0.861440
    30  N   -0.184607
 Sum of Mulliken charges =  -0.00000
 Mulliken charges with hydrogens summed into heavy atoms:
               1
     1  C    0.529496
     2  C    0.074622
     3  S    0.303910
     4  S    0.233733
     5  C    1.071009
     6  C    1.290476
     7  C    0.831657
     8  N   -1.101592
     9  S    0.539431
    10  C   -1.067881
    11  N   -0.072021
    12  C   -1.388048
    13  N   -0.082564
    14  C   -0.881642
    15  N   -0.179224
    16  C    0.567029
    17  C   -0.137160
    18  S    0.350869
    19  S    0.277519
    20  C    1.040807
    21  C    1.541553
    22  C    0.871682
    23  N   -1.091291
    24  S    0.551273
    25  C   -1.241585
    26  N   -0.106903
    27  C   -1.690175
    28  N    0.011064
    29  C   -0.861440
    30  N   -0.184607
 Electronic spatial extent (au):  <R**2>=          39282.9620
 Charge=              0.0000 electrons
 Dipole moment (field-independent basis, Debye):
    X=             -4.2538    Y=             -2.3729    Z=             -1.0887  Tot=              4.9910

 Test job not archived.
 1\1\GINC-CHIMERA-NODE23\SP\RM05\Gen\C16N8S6\CONNORNM\19-Jan-2019\0\\#T
  M05/Gen test Massage SCF=(fermi,maxcyc=60)\\M05 opt\\0,1\C,0,-0.59625
 948,0.0106558,-0.82793115\C,0,-0.04522126,-1.26881822,-0.53616111\S,0,
 0.17120497,1.54971438,-0.46624948\S,0,1.50735674,-1.51863797,0.2772760
 3\C,0,1.03934741,1.13454909,1.02307539\C,0,1.56920955,-0.08283196,1.31
 440601\C,0,-1.79118489,-0.14139631,-1.50197614\N,0,-0.72220575,-2.3204
 3667,-0.9281441\S,0,-2.09760876,-1.83240042,-1.72877139\C,0,1.18406347
 ,2.23860742,1.91257082\N,0,1.29743811,3.17367801,2.59373322\C,0,2.2924
 1228,-0.29933572,2.52438365\N,0,2.91345317,-0.51313937,3.48330092\C,0,
 -2.66008652,0.86508637,-1.98897819\N,0,-3.38023175,1.67791335,-2.40346
 47\C,0,-0.39935742,-0.33545547,9.28165163\C,0,-1.25368847,0.54939723,8
 .56542486\S,0,0.76878154,-1.42678037,8.5515982\S,0,-1.25461632,0.71827
 344,6.80302073\C,0,1.2492877,-0.48071214,7.13096778\C,0,0.44414985,0.3
 6809127,6.43892018\C,0,-0.67766312,-0.25814819,10.63141929\N,0,-2.1120
 2638,1.25396621,9.26162785\S,0,-1.97199305,0.86888231,10.87501496\C,0,
 2.59370398,-0.72395031,6.72541914\N,0,3.68706219,-0.9730008,6.41925789
 \C,0,0.91726459,1.04719543,5.2774892\N,0,1.25089923,1.59841353,4.31013
 577\C,0,-0.07498473,-0.97190955,11.69560533\N,0,0.40204235,-1.55566462
 ,12.58034885\\Version=AS64L-G09RevD.01\HF=-3449.475795\RMSD=9.073e-09\
 Dipole=-1.6735627,-0.9335511,-0.4283307\Quadrupole=-4.2824936,-0.91719
 07,5.1996843,7.4879007,-31.063411,10.9270992\PG=C01 [X(C16N8S6)]\\@


 IT WAS A GAME, A VERY INTERESTING GAME ONE COULD
 PLAY.  WHENEVER ONE SOLVED ONE OF THE LITTLE PROBLEMS,
 ONE COULD WRITE A PAPER ABOUT IT.  IT WAS VERY EASY IN
 THOSE DAYS FOR ANY SECOND-RATE PHYSICIST TO DO
 FIRST-RATE WORK.  THERE HAS NOT BEEN SUCH A GLORIOUS
 TIME SINCE.  IT IS VERY DIFFICULT NOW FOR A FIRST-RATE
 PHYSICIST TO DO SECOND-RATE WORK.
     P.A.M. DIRAC, ON THE EARLY DAYS OF QUANTUM MECHANICS
                   DIRECTIONS IN PHYSICS, 1978, P. 7
 Job cpu time:       0 days 12 hours 50 minutes 20.4 seconds.
 File lengths (MBytes):  RWF=    225 Int=      0 D2E=      0 Chk=     19 Scr=      1
 Normal termination of Gaussian 09 at Sat Jan 19 11:27:44 2019.
