 Entering Gaussian System, Link 0=/data/szalewicgrp/connornm/opt/Gaussian/g09-M05-par/g09/g09
 AtFile(1): blind-aug.gbs
 Initial command:
 /data/szalewicgrp/connornm/opt/Gaussian/g09-M05-par/g09/l1.exe "/scratch/local/Gau-27713.inp" -scrdir="/scratch/local/"
 Entering Link 1 = /data/szalewicgrp/connornm/opt/Gaussian/g09-M05-par/g09/l1.exe PID=     27714.
  
 Copyright (c) 1988,1990,1992,1993,1995,1998,2003,2009,2013,
            Gaussian, Inc.  All Rights Reserved.
  
 This is part of the Gaussian(R) 09 program.  It is based on
 the Gaussian(R) 03 system (copyright 2003, Gaussian, Inc.),
 the Gaussian(R) 98 system (copyright 1998, Gaussian, Inc.),
 the Gaussian(R) 94 system (copyright 1995, Gaussian, Inc.),
 the Gaussian 92(TM) system (copyright 1992, Gaussian, Inc.),
 the Gaussian 90(TM) system (copyright 1990, Gaussian, Inc.),
 the Gaussian 88(TM) system (copyright 1988, Gaussian, Inc.),
 the Gaussian 86(TM) system (copyright 1986, Carnegie Mellon
 University), and the Gaussian 82(TM) system (copyright 1983,
 Carnegie Mellon University). Gaussian is a federally registered
 trademark of Gaussian, Inc.
  
 This software contains proprietary and confidential information,
 including trade secrets, belonging to Gaussian, Inc.
  
 This software is provided under written license and may be
 used, copied, transmitted, or stored only in accord with that
 written license.
  
 The following legend is applicable only to US Government
 contracts under FAR:
  
                    RESTRICTED RIGHTS LEGEND
  
 Use, reproduction and disclosure by the US Government is
 subject to restrictions as set forth in subparagraphs (a)
 and (c) of the Commercial Computer Software - Restricted
 Rights clause in FAR 52.227-19.
  
 Gaussian, Inc.
 340 Quinnipiac St., Bldg. 40, Wallingford CT 06492
  
  
 ---------------------------------------------------------------
 Warning -- This program may not be used in any manner that
 competes with the business of Gaussian, Inc. or will provide
 assistance to any competitor of Gaussian, Inc.  The licensee
 of this program is prohibited from giving any competitor of
 Gaussian, Inc. access to this program.  By using this program,
 the user acknowledges that Gaussian, Inc. is engaged in the
 business of creating and licensing software in the field of
 computational chemistry and represents and warrants to the
 licensee that it is not a competitor of Gaussian, Inc. and that
 it will not use this program in any manner prohibited above.
 ---------------------------------------------------------------
  

 Cite this work as:
 Gaussian 09, Revision D.01,
 M. J. Frisch, G. W. Trucks, H. B. Schlegel, G. E. Scuseria, 
 M. A. Robb, J. R. Cheeseman, G. Scalmani, V. Barone, B. Mennucci, 
 G. A. Petersson, H. Nakatsuji, M. Caricato, X. Li, H. P. Hratchian, 
 A. F. Izmaylov, J. Bloino, G. Zheng, J. L. Sonnenberg, M. Hada, 
 M. Ehara, K. Toyota, R. Fukuda, J. Hasegawa, M. Ishida, T. Nakajima, 
 Y. Honda, O. Kitao, H. Nakai, T. Vreven, J. A. Montgomery, Jr., 
 J. E. Peralta, F. Ogliaro, M. Bearpark, J. J. Heyd, E. Brothers, 
 K. N. Kudin, V. N. Staroverov, T. Keith, R. Kobayashi, J. Normand, 
 K. Raghavachari, A. Rendell, J. C. Burant, S. S. Iyengar, J. Tomasi, 
 M. Cossi, N. Rega, J. M. Millam, M. Klene, J. E. Knox, J. B. Cross, 
 V. Bakken, C. Adamo, J. Jaramillo, R. Gomperts, R. E. Stratmann, 
 O. Yazyev, A. J. Austin, R. Cammi, C. Pomelli, J. W. Ochterski, 
 R. L. Martin, K. Morokuma, V. G. Zakrzewski, G. A. Voth, 
 P. Salvador, J. J. Dannenberg, S. Dapprich, A. D. Daniels, 
 O. Farkas, J. B. Foresman, J. V. Ortiz, J. Cioslowski, 
 and D. J. Fox, Gaussian, Inc., Wallingford CT, 2013.
 
 ******************************************
 Gaussian 09:  AS64L-G09RevD.01 24-Apr-2013
                19-Jan-2019 
 ******************************************
 %Chk=BLIND01353_mA
 %Mem=1GB
 %NProcShared=48
 Will use up to   48 processors via shared memory.
 ---------------------------------------------
 #T M05/Gen test Massage SCF=(fermi,maxcyc=60)
 ---------------------------------------------
 -------
 M05 opt
 -------
 Symbolic Z-matrix:
 Charge =  0 Multiplicity = 1
 6                     0.16508  -0.33613   0.94914 
 6                     0.21566   1.08105   0.82719 
 16                    0.60747  -1.4771   -0.31221 
 16                    0.70822   1.93355  -0.64428 
 6                     0.12626  -0.56505  -1.75468 
 6                     0.16863   0.78742  -1.88374 
 6                    -0.21552  -0.67835   2.23107 
 7                    -0.09184   1.7887    1.88669 
 16                   -0.44451   0.77021   3.15523 
 6                    -0.28517  -1.40058  -2.83343 
 7                    -0.58925  -2.12346  -3.69144 
 6                    -0.19737   1.42092  -3.10794 
 7                    -0.45809   1.97724  -4.09458 
 6                    -0.37996  -1.97173   2.78359 
 7                    -0.5108   -3.02559   3.25621 
 
                    Distance matrix (angstroms):
                    1          2          3          4          5
     1  C    0.000000
     2  C    1.423315   0.000000
     3  S    1.757418   2.827694   0.000000
     4  S    2.825849   1.770477   3.428253   0.000000
     5  C    2.713774   3.063280   1.773167   2.795470   0.000000
     6  C    3.047557   2.727187   2.791121   1.772288   1.359281
     7  C    1.380327   2.291783   2.789903   3.992857   4.001979
     8  N    2.336642   1.310672   3.998700   2.658358   4.341342
     9  S    2.542129   2.439721   4.263822   4.137445   5.120151
    10  C    3.955208   4.450782   2.675676   4.110426   1.425163
    11  N    5.029770   5.597745   3.642685   5.237162   2.586817
    12  C    4.436049   3.971317   4.106384   2.674416   2.424897
    13  N    5.583831   5.047859   5.232040   3.642352   3.504263
    14  C    2.517432   3.674472   3.286888   5.309014   4.778168
    15  N    3.607292   4.826214   4.047461   6.425950   5.618639
                    6          7          8          9         10
     6  C    0.000000
     7  C    4.384939   0.000000
     8  N    3.909794   2.494036   0.000000
     9  S    5.076167   1.733444   1.664607   0.000000
    10  C    2.428007   5.116215   5.699860   6.371958   0.000000
    11  N    3.509330   6.107712   6.831389   7.434461   1.162408
    12  C    1.426163   5.736923   5.009263   6.301738   2.836178
    13  N    2.587713   6.864751   5.995430   7.349618   3.609722
    14  C    5.449573   1.416040   3.876636   2.767765   5.646781
    15  N    6.435818   2.578302   5.022796   3.797715   6.306769
                   11         12         13         14         15
    11  N    0.000000
    12  C    3.613393   0.000000
    13  N    4.122555   1.162293   0.000000
    14  C    6.480188   6.800997   7.931563   0.000000
    15  N    7.006418   7.769948   8.891861   1.162367   0.000000
 Symmetry turned off by external request.
 Framework group  C1[X(C8N4S3)]
 Deg. of freedom    39
 Rotational constants (GHZ):      0.7722167      0.3388923      0.2463240
   357 basis functions,   759 primitive gaussians,   387 cartesian basis functions
    62 alpha electrons       62 beta electrons
       nuclear repulsion energy      1166.1400393741 Hartrees.
 IMHF & INEx in M05                  599485                  400514
 NAtoms=   15 NActive=   15 NUniq=   15 SFac= 1.00D+00 NAtFMM=   60 NAOKFM=F Big=F
 PrsmSu:  requested number of processors reduced to:  34 ShMem   1 Linda.
 ExpMin= 3.99D-02 ExpMax= 1.11D+05 ExpMxC= 1.07D+03 IAcc=3 IRadAn=         5 AccDes= 0.00D+00
 Harris functional with IExCor= 1009 and IRadAn=       5 diagonalized for initial guess.
 HarFok:  IExCor= 1009 AccDes= 0.00D+00 IRadAn=         5 IDoV= 1 UseB2=F ITyADJ=14
 ICtDFT=  3500011 ScaDFX=  1.000000  1.000000  1.000000  1.000000
 FoFCou: FMM=F IPFlag=           0 FMFlag=      100000 FMFlg1=           0
         NFxFlg=           0 DoJE=T BraDBF=F KetDBF=T FulRan=T
         wScrn=  0.000000 ICntrl=     500 IOpCl=  0 I1Cent=   200000004 NGrid=           0
         NMat0=    1 NMatS0=      1 NMatT0=    0 NMatD0=    1 NMtDS0=    0 NMtDT0=    0
 Symmetry not used in FoFCou.
 SCF Done:  E(RM05) =  -1724.76145003     A.U. after   17 cycles
            NFock= 17  Conv=0.52D-08     -V/T= 2.0061

 **********************************************************************

            Population analysis using the SCF density.

 **********************************************************************

 Alpha  occ. eigenvalues --  -90.56431 -90.53636 -90.53181 -15.08622 -15.05417
 Alpha  occ. eigenvalues --  -15.04969 -15.04934 -10.89944 -10.89826 -10.89736
 Alpha  occ. eigenvalues --  -10.88752 -10.87414 -10.84947 -10.84331 -10.84311
 Alpha  occ. eigenvalues --   -8.57526  -8.55035  -8.54609  -6.40063  -6.39713
 Alpha  occ. eigenvalues --   -6.39401  -6.37597  -6.37282  -6.37162  -6.36852
 Alpha  occ. eigenvalues --   -6.36822  -6.36392  -1.20533  -1.12895  -1.12139
 Alpha  occ. eigenvalues --   -1.11337  -1.07643  -1.03801  -0.98824  -0.97396
 Alpha  occ. eigenvalues --   -0.88003  -0.84555  -0.82236  -0.73687  -0.71296
 Alpha  occ. eigenvalues --   -0.67838  -0.64612  -0.59530  -0.57258  -0.55386
 Alpha  occ. eigenvalues --   -0.53385  -0.52648  -0.52243  -0.51890  -0.50883
 Alpha  occ. eigenvalues --   -0.50387  -0.49356  -0.48215  -0.46805  -0.46074
 Alpha  occ. eigenvalues --   -0.45933  -0.45296  -0.43720  -0.43113  -0.39488
 Alpha  occ. eigenvalues --   -0.37628  -0.33119
 Alpha virt. eigenvalues --   -0.09329  -0.08269  -0.02099  -0.01264  -0.00511
 Alpha virt. eigenvalues --   -0.00362   0.00152   0.01254   0.02017   0.02227
 Alpha virt. eigenvalues --    0.02393   0.02956   0.03184   0.04002   0.04272
 Alpha virt. eigenvalues --    0.04485   0.05427   0.06002   0.06301   0.07067
 Alpha virt. eigenvalues --    0.07265   0.07528   0.07705   0.08289   0.08491
 Alpha virt. eigenvalues --    0.09373   0.10093   0.10385   0.10521   0.10806
 Alpha virt. eigenvalues --    0.11289   0.11393   0.11978   0.12526   0.13227
 Alpha virt. eigenvalues --    0.13484   0.13936   0.14452   0.15079   0.15194
 Alpha virt. eigenvalues --    0.15897   0.16270   0.16675   0.16810   0.17186
 Alpha virt. eigenvalues --    0.17355   0.17848   0.18615   0.19043   0.19565
 Alpha virt. eigenvalues --    0.19858   0.20237   0.20685   0.20948   0.21270
 Alpha virt. eigenvalues --    0.21873   0.22206   0.22584   0.22812   0.23614
 Alpha virt. eigenvalues --    0.23741   0.24103   0.24366   0.24703   0.25256
 Alpha virt. eigenvalues --    0.25693   0.25852   0.26222   0.26616   0.26750
 Alpha virt. eigenvalues --    0.27066   0.28333   0.29195   0.29661   0.30368
 Alpha virt. eigenvalues --    0.30711   0.32419   0.33447   0.34152   0.34712
 Alpha virt. eigenvalues --    0.34945   0.35472   0.36120   0.36937   0.37592
 Alpha virt. eigenvalues --    0.38149   0.39575   0.40726   0.41167   0.42047
 Alpha virt. eigenvalues --    0.42124   0.43483   0.44136   0.45736   0.45972
 Alpha virt. eigenvalues --    0.46954   0.48536   0.49567   0.50224   0.50590
 Alpha virt. eigenvalues --    0.51523   0.51859   0.53527   0.54165   0.54418
 Alpha virt. eigenvalues --    0.54699   0.55469   0.55735   0.55836   0.56448
 Alpha virt. eigenvalues --    0.57765   0.58131   0.58554   0.59213   0.60313
 Alpha virt. eigenvalues --    0.60549   0.61102   0.61589   0.62105   0.62707
 Alpha virt. eigenvalues --    0.63715   0.64720   0.64954   0.66006   0.66552
 Alpha virt. eigenvalues --    0.67683   0.68188   0.68805   0.70109   0.70410
 Alpha virt. eigenvalues --    0.71051   0.72855   0.73466   0.73853   0.75368
 Alpha virt. eigenvalues --    0.75567   0.76457   0.77061   0.77550   0.77839
 Alpha virt. eigenvalues --    0.78246   0.79254   0.79761   0.79877   0.81107
 Alpha virt. eigenvalues --    0.81535   0.82546   0.83274   0.83958   0.84872
 Alpha virt. eigenvalues --    0.85699   0.85940   0.87123   0.87245   0.88401
 Alpha virt. eigenvalues --    0.88458   0.89344   0.89667   0.89829   0.90728
 Alpha virt. eigenvalues --    0.91171   0.91722   0.92828   0.93718   0.94366
 Alpha virt. eigenvalues --    0.95434   0.95563   0.97324   0.98743   0.99312
 Alpha virt. eigenvalues --    0.99843   1.01203   1.02848   1.03576   1.04749
 Alpha virt. eigenvalues --    1.05758   1.06741   1.08039   1.08541   1.09635
 Alpha virt. eigenvalues --    1.10232   1.11403   1.13197   1.13608   1.14404
 Alpha virt. eigenvalues --    1.15322   1.17103   1.18347   1.20285   1.20631
 Alpha virt. eigenvalues --    1.21606   1.22701   1.23934   1.24221   1.26557
 Alpha virt. eigenvalues --    1.27345   1.29757   1.30250   1.32270   1.34126
 Alpha virt. eigenvalues --    1.37315   1.40084   1.40257   1.41564   1.42728
 Alpha virt. eigenvalues --    1.43616   1.45022   1.46463   1.47274   1.49373
 Alpha virt. eigenvalues --    1.49822   1.50473   1.51642   1.51867   1.52334
 Alpha virt. eigenvalues --    1.53716   1.54192   1.55430   1.56137   1.56447
 Alpha virt. eigenvalues --    1.56785   1.58485   1.59727   1.60389   1.60518
 Alpha virt. eigenvalues --    1.62131   1.63283   1.64919   1.66028   1.67545
 Alpha virt. eigenvalues --    1.68614   1.69173   1.70471   1.71323   1.74152
 Alpha virt. eigenvalues --    1.76827   1.77075   1.79017   1.79377   1.81041
 Alpha virt. eigenvalues --    1.82956   1.85920   1.88150   1.89703   1.90608
 Alpha virt. eigenvalues --    1.91370   1.94485   1.95004   1.97393   2.00538
 Alpha virt. eigenvalues --    2.00825   2.05447   2.07036   2.08350   2.08473
 Alpha virt. eigenvalues --    2.10895   2.13938   2.18605   2.20235   2.24595
 Alpha virt. eigenvalues --    2.27649   2.30687   2.37025   2.37401   2.38002
 Alpha virt. eigenvalues --    2.38279   2.39369   2.39931   2.40470   2.42150
 Alpha virt. eigenvalues --    2.42561   2.43756   2.45056   2.51012   2.54996
 Alpha virt. eigenvalues --    2.61164   2.64123   2.68330   2.71900   2.73263
 Alpha virt. eigenvalues --    2.76308   2.78780   2.81842   2.94680   2.99732
 Alpha virt. eigenvalues --    3.01877   3.09945   3.11452   3.15939   3.17850
 Alpha virt. eigenvalues --    3.24295   3.27131   3.35296   3.59310   3.74892
          Condensed to atoms (all electrons):
 Mulliken charges:
               1
     1  C    0.620463
     2  C   -0.108973
     3  S    0.374391
     4  S    0.297071
     5  C    1.039371
     6  C    1.130557
     7  C    0.787107
     8  N   -1.083554
     9  S    0.557304
    10  C   -1.129660
    11  N   -0.167985
    12  C   -1.099538
    13  N   -0.180639
    14  C   -0.852886
    15  N   -0.183029
 Sum of Mulliken charges =  -0.00000
 Mulliken charges with hydrogens summed into heavy atoms:
               1
     1  C    0.620463
     2  C   -0.108973
     3  S    0.374391
     4  S    0.297071
     5  C    1.039371
     6  C    1.130557
     7  C    0.787107
     8  N   -1.083554
     9  S    0.557304
    10  C   -1.129660
    11  N   -0.167985
    12  C   -1.099538
    13  N   -0.180639
    14  C   -0.852886
    15  N   -0.183029
 Electronic spatial extent (au):  <R**2>=           4013.7184
 Charge=             -0.0000 electrons
 Dipole moment (field-independent basis, Debye):
    X=              1.5546    Y=              1.9536    Z=              3.9648  Tot=              4.6854

 Test job not archived.
 1\1\GINC-CHIMERA-NODE41\SP\RM05\Gen\C8N4S3\CONNORNM\19-Jan-2019\0\\#T 
 M05/Gen test Massage SCF=(fermi,maxcyc=60)\\M05 opt\\0,1\C,0,0.1650841
 7,-0.33613073,0.94914291\C,0,0.21565769,1.08104815,0.82718803\S,0,0.60
 747017,-1.47709898,-0.31220666\S,0,0.70821738,1.9335453,-0.64428127\C,
 0,0.1262596,-0.56505244,-1.75468008\C,0,0.16862911,0.78742411,-1.88373
 841\C,0,-0.21551912,-0.67834831,2.23106782\N,0,-0.09184295,1.78869876,
 1.88668508\S,0,-0.44450717,0.77020545,3.15523395\C,0,-0.28516574,-1.40
 058129,-2.83343417\N,0,-0.58924913,-2.12345532,-3.69144318\C,0,-0.1973
 6503,1.42091526,-3.10794395\N,0,-0.45809249,1.97724446,-4.09457718\C,0
 ,-0.37996307,-1.97173486,2.78358737\N,0,-0.5107963,-3.02558761,3.25621
 087\\Version=AS64L-G09RevD.01\HF=-1724.76145\RMSD=5.152e-09\Dipole=0.6
 116408,0.7685878,1.5598719\Quadrupole=10.7940765,-3.1259832,-7.6680933
 ,-1.3699332,-3.618991,5.5921645\PG=C01 [X(C8N4S3)]\\@


 I CLAIM NOT TO HAVE CONTROLLED EVENTS,
 BUT CONFESS PLAINLY THAT EVENTS HAVE CONTROLLED ME.

                                         A. LINCOLN
 Job cpu time:       0 days  1 hours 39 minutes 18.9 seconds.
 File lengths (MBytes):  RWF=     58 Int=      0 D2E=      0 Chk=      6 Scr=      1
 Normal termination of Gaussian 09 at Sat Jan 19 10:44:51 2019.
