 Entering Gaussian System, Link 0=/data/szalewicgrp/connornm/opt/Gaussian/g09-M05-par/g09/g09
 AtFile(1): blind-aug.gbs
 Initial command:
 /data/szalewicgrp/connornm/opt/Gaussian/g09-M05-par/g09/l1.exe "/scratch/local/Gau-32478.inp" -scrdir="/scratch/local/"
 Entering Link 1 = /data/szalewicgrp/connornm/opt/Gaussian/g09-M05-par/g09/l1.exe PID=     32479.
  
 Copyright (c) 1988,1990,1992,1993,1995,1998,2003,2009,2013,
            Gaussian, Inc.  All Rights Reserved.
  
 This is part of the Gaussian(R) 09 program.  It is based on
 the Gaussian(R) 03 system (copyright 2003, Gaussian, Inc.),
 the Gaussian(R) 98 system (copyright 1998, Gaussian, Inc.),
 the Gaussian(R) 94 system (copyright 1995, Gaussian, Inc.),
 the Gaussian 92(TM) system (copyright 1992, Gaussian, Inc.),
 the Gaussian 90(TM) system (copyright 1990, Gaussian, Inc.),
 the Gaussian 88(TM) system (copyright 1988, Gaussian, Inc.),
 the Gaussian 86(TM) system (copyright 1986, Carnegie Mellon
 University), and the Gaussian 82(TM) system (copyright 1983,
 Carnegie Mellon University). Gaussian is a federally registered
 trademark of Gaussian, Inc.
  
 This software contains proprietary and confidential information,
 including trade secrets, belonging to Gaussian, Inc.
  
 This software is provided under written license and may be
 used, copied, transmitted, or stored only in accord with that
 written license.
  
 The following legend is applicable only to US Government
 contracts under FAR:
  
                    RESTRICTED RIGHTS LEGEND
  
 Use, reproduction and disclosure by the US Government is
 subject to restrictions as set forth in subparagraphs (a)
 and (c) of the Commercial Computer Software - Restricted
 Rights clause in FAR 52.227-19.
  
 Gaussian, Inc.
 340 Quinnipiac St., Bldg. 40, Wallingford CT 06492
  
  
 ---------------------------------------------------------------
 Warning -- This program may not be used in any manner that
 competes with the business of Gaussian, Inc. or will provide
 assistance to any competitor of Gaussian, Inc.  The licensee
 of this program is prohibited from giving any competitor of
 Gaussian, Inc. access to this program.  By using this program,
 the user acknowledges that Gaussian, Inc. is engaged in the
 business of creating and licensing software in the field of
 computational chemistry and represents and warrants to the
 licensee that it is not a competitor of Gaussian, Inc. and that
 it will not use this program in any manner prohibited above.
 ---------------------------------------------------------------
  

 Cite this work as:
 Gaussian 09, Revision D.01,
 M. J. Frisch, G. W. Trucks, H. B. Schlegel, G. E. Scuseria, 
 M. A. Robb, J. R. Cheeseman, G. Scalmani, V. Barone, B. Mennucci, 
 G. A. Petersson, H. Nakatsuji, M. Caricato, X. Li, H. P. Hratchian, 
 A. F. Izmaylov, J. Bloino, G. Zheng, J. L. Sonnenberg, M. Hada, 
 M. Ehara, K. Toyota, R. Fukuda, J. Hasegawa, M. Ishida, T. Nakajima, 
 Y. Honda, O. Kitao, H. Nakai, T. Vreven, J. A. Montgomery, Jr., 
 J. E. Peralta, F. Ogliaro, M. Bearpark, J. J. Heyd, E. Brothers, 
 K. N. Kudin, V. N. Staroverov, T. Keith, R. Kobayashi, J. Normand, 
 K. Raghavachari, A. Rendell, J. C. Burant, S. S. Iyengar, J. Tomasi, 
 M. Cossi, N. Rega, J. M. Millam, M. Klene, J. E. Knox, J. B. Cross, 
 V. Bakken, C. Adamo, J. Jaramillo, R. Gomperts, R. E. Stratmann, 
 O. Yazyev, A. J. Austin, R. Cammi, C. Pomelli, J. W. Ochterski, 
 R. L. Martin, K. Morokuma, V. G. Zakrzewski, G. A. Voth, 
 P. Salvador, J. J. Dannenberg, S. Dapprich, A. D. Daniels, 
 O. Farkas, J. B. Foresman, J. V. Ortiz, J. Cioslowski, 
 and D. J. Fox, Gaussian, Inc., Wallingford CT, 2013.
 
 ******************************************
 Gaussian 09:  AS64L-G09RevD.01 24-Apr-2013
                19-Jan-2019 
 ******************************************
 %Chk=BLIND00748_mB
 %Mem=1GB
 %NProcShared=48
 Will use up to   48 processors via shared memory.
 ---------------------------------------------
 #T M05/Gen test Massage SCF=(fermi,maxcyc=60)
 ---------------------------------------------
 -------
 M05 opt
 -------
 Symbolic Z-matrix:
 Charge =  0 Multiplicity = 1
 6                    -0.66385   0.42389   6.55093 
 6                    -0.85362   0.82083   5.19732 
 16                   -0.034    -1.13228   7.07066 
 16                   -0.45061  -0.19013   3.80085 
 6                     1.08698  -1.48568   5.74302 
 6                     0.91829  -1.1118    4.4471 
 6                    -1.11624   1.41874   7.39409 
 7                    -1.39158   1.99675   4.98364 
 16                   -1.74869   2.72022   6.43965 
 6                     2.20788  -2.2661    6.14997 
 7                     3.09102  -2.92257   6.52453 
 6                     1.85969  -1.48937   3.44453 
 7                     2.58486  -1.79879   2.59053 
 6                    -1.12735   1.43343   8.81001 
 7                    -1.1528    1.45876   9.97182 
 
                    Distance matrix (angstroms):
                    1          2          3          4          5
     1  C    0.000000
     2  C    1.423315   0.000000
     3  S    1.757418   2.827694   0.000000
     4  S    2.825849   1.770477   3.428253   0.000000
     5  C    2.713774   3.063280   1.773167   2.795470   0.000000
     6  C    3.047557   2.727187   2.791121   1.772288   1.359281
     7  C    1.380327   2.291783   2.789903   3.992857   4.001979
     8  N    2.336642   1.310672   3.998700   2.658358   4.341342
     9  S    2.542129   2.439721   4.263822   4.137445   5.120151
    10  C    3.955208   4.450782   2.675676   4.110426   1.425163
    11  N    5.029770   5.597745   3.642685   5.237162   2.586817
    12  C    4.436049   3.971317   4.106384   2.674416   2.424897
    13  N    5.583831   5.047859   5.232040   3.642352   3.504263
    14  C    2.517432   3.674472   3.286888   5.309014   4.778168
    15  N    3.607292   4.826214   4.047461   6.425950   5.618639
                    6          7          8          9         10
     6  C    0.000000
     7  C    4.384939   0.000000
     8  N    3.909794   2.494036   0.000000
     9  S    5.076167   1.733444   1.664607   0.000000
    10  C    2.428007   5.116215   5.699860   6.371958   0.000000
    11  N    3.509330   6.107712   6.831389   7.434461   1.162408
    12  C    1.426163   5.736923   5.009263   6.301738   2.836178
    13  N    2.587713   6.864751   5.995430   7.349618   3.609722
    14  C    5.449573   1.416040   3.876636   2.767765   5.646781
    15  N    6.435818   2.578302   5.022796   3.797715   6.306769
                   11         12         13         14         15
    11  N    0.000000
    12  C    3.613393   0.000000
    13  N    4.122555   1.162293   0.000000
    14  C    6.480188   6.800997   7.931563   0.000000
    15  N    7.006418   7.769948   8.891861   1.162367   0.000000
 Symmetry turned off by external request.
 Framework group  C1[X(C8N4S3)]
 Deg. of freedom    39
 Rotational constants (GHZ):      0.7722167      0.3388923      0.2463240
   357 basis functions,   759 primitive gaussians,   387 cartesian basis functions
    62 alpha electrons       62 beta electrons
       nuclear repulsion energy      1166.1400392096 Hartrees.
 IMHF & INEx in M05                  599485                  400514
 NAtoms=   15 NActive=   15 NUniq=   15 SFac= 1.00D+00 NAtFMM=   60 NAOKFM=F Big=F
 PrsmSu:  requested number of processors reduced to:  34 ShMem   1 Linda.
 ExpMin= 3.99D-02 ExpMax= 1.11D+05 ExpMxC= 1.07D+03 IAcc=3 IRadAn=         5 AccDes= 0.00D+00
 Harris functional with IExCor= 1009 and IRadAn=       5 diagonalized for initial guess.
 HarFok:  IExCor= 1009 AccDes= 0.00D+00 IRadAn=         5 IDoV= 1 UseB2=F ITyADJ=14
 ICtDFT=  3500011 ScaDFX=  1.000000  1.000000  1.000000  1.000000
 FoFCou: FMM=F IPFlag=           0 FMFlag=      100000 FMFlg1=           0
         NFxFlg=           0 DoJE=T BraDBF=F KetDBF=T FulRan=T
         wScrn=  0.000000 ICntrl=     500 IOpCl=  0 I1Cent=   200000004 NGrid=           0
         NMat0=    1 NMatS0=      1 NMatT0=    0 NMatD0=    1 NMtDS0=    0 NMtDT0=    0
 Symmetry not used in FoFCou.
 SCF Done:  E(RM05) =  -1724.76148303     A.U. after   17 cycles
            NFock= 17  Conv=0.51D-08     -V/T= 2.0061

 **********************************************************************

            Population analysis using the SCF density.

 **********************************************************************

 Alpha  occ. eigenvalues --  -90.56429 -90.53637 -90.53181 -15.08622 -15.05416
 Alpha  occ. eigenvalues --  -15.04970 -15.04934 -10.89945 -10.89827 -10.89736
 Alpha  occ. eigenvalues --  -10.88752 -10.87414 -10.84946 -10.84332 -10.84311
 Alpha  occ. eigenvalues --   -8.57524  -8.55036  -8.54608  -6.40062  -6.39711
 Alpha  occ. eigenvalues --   -6.39400  -6.37598  -6.37283  -6.37162  -6.36852
 Alpha  occ. eigenvalues --   -6.36822  -6.36391  -1.20533  -1.12896  -1.12139
 Alpha  occ. eigenvalues --   -1.11338  -1.07643  -1.03801  -0.98824  -0.97396
 Alpha  occ. eigenvalues --   -0.88002  -0.84555  -0.82236  -0.73687  -0.71296
 Alpha  occ. eigenvalues --   -0.67838  -0.64612  -0.59530  -0.57258  -0.55386
 Alpha  occ. eigenvalues --   -0.53385  -0.52647  -0.52243  -0.51890  -0.50883
 Alpha  occ. eigenvalues --   -0.50387  -0.49356  -0.48216  -0.46805  -0.46075
 Alpha  occ. eigenvalues --   -0.45933  -0.45296  -0.43720  -0.43113  -0.39488
 Alpha  occ. eigenvalues --   -0.37627  -0.33120
 Alpha virt. eigenvalues --   -0.09329  -0.08268  -0.02099  -0.01262  -0.00505
 Alpha virt. eigenvalues --   -0.00362   0.00154   0.01255   0.02018   0.02229
 Alpha virt. eigenvalues --    0.02393   0.02957   0.03188   0.04003   0.04274
 Alpha virt. eigenvalues --    0.04485   0.05427   0.06005   0.06298   0.07066
 Alpha virt. eigenvalues --    0.07269   0.07526   0.07707   0.08290   0.08490
 Alpha virt. eigenvalues --    0.09374   0.10093   0.10387   0.10523   0.10812
 Alpha virt. eigenvalues --    0.11288   0.11393   0.11977   0.12527   0.13229
 Alpha virt. eigenvalues --    0.13493   0.13935   0.14456   0.15077   0.15188
 Alpha virt. eigenvalues --    0.15905   0.16275   0.16678   0.16813   0.17189
 Alpha virt. eigenvalues --    0.17354   0.17839   0.18612   0.19045   0.19564
 Alpha virt. eigenvalues --    0.19861   0.20237   0.20680   0.20931   0.21269
 Alpha virt. eigenvalues --    0.21878   0.22205   0.22582   0.22824   0.23615
 Alpha virt. eigenvalues --    0.23750   0.24111   0.24368   0.24705   0.25254
 Alpha virt. eigenvalues --    0.25695   0.25856   0.26230   0.26625   0.26743
 Alpha virt. eigenvalues --    0.27069   0.28335   0.29195   0.29661   0.30367
 Alpha virt. eigenvalues --    0.30710   0.32419   0.33456   0.34155   0.34714
 Alpha virt. eigenvalues --    0.34949   0.35471   0.36121   0.36936   0.37594
 Alpha virt. eigenvalues --    0.38151   0.39577   0.40726   0.41171   0.42050
 Alpha virt. eigenvalues --    0.42118   0.43486   0.44134   0.45733   0.45981
 Alpha virt. eigenvalues --    0.46963   0.48547   0.49570   0.50230   0.50595
 Alpha virt. eigenvalues --    0.51527   0.51858   0.53525   0.54165   0.54423
 Alpha virt. eigenvalues --    0.54703   0.55467   0.55734   0.55838   0.56449
 Alpha virt. eigenvalues --    0.57767   0.58140   0.58556   0.59218   0.60315
 Alpha virt. eigenvalues --    0.60552   0.61100   0.61585   0.62105   0.62710
 Alpha virt. eigenvalues --    0.63721   0.64714   0.64955   0.66008   0.66557
 Alpha virt. eigenvalues --    0.67689   0.68191   0.68805   0.70106   0.70410
 Alpha virt. eigenvalues --    0.71049   0.72864   0.73471   0.73853   0.75370
 Alpha virt. eigenvalues --    0.75565   0.76455   0.77063   0.77550   0.77842
 Alpha virt. eigenvalues --    0.78242   0.79255   0.79760   0.79880   0.81109
 Alpha virt. eigenvalues --    0.81535   0.82542   0.83274   0.83957   0.84871
 Alpha virt. eigenvalues --    0.85698   0.85939   0.87124   0.87248   0.88401
 Alpha virt. eigenvalues --    0.88459   0.89345   0.89663   0.89829   0.90730
 Alpha virt. eigenvalues --    0.91170   0.91726   0.92828   0.93722   0.94368
 Alpha virt. eigenvalues --    0.95430   0.95567   0.97324   0.98746   0.99316
 Alpha virt. eigenvalues --    0.99846   1.01206   1.02847   1.03573   1.04751
 Alpha virt. eigenvalues --    1.05759   1.06745   1.08037   1.08544   1.09635
 Alpha virt. eigenvalues --    1.10237   1.11403   1.13199   1.13605   1.14404
 Alpha virt. eigenvalues --    1.15323   1.17100   1.18344   1.20285   1.20633
 Alpha virt. eigenvalues --    1.21607   1.22702   1.23934   1.24219   1.26557
 Alpha virt. eigenvalues --    1.27347   1.29758   1.30250   1.32270   1.34124
 Alpha virt. eigenvalues --    1.37312   1.40084   1.40259   1.41566   1.42728
 Alpha virt. eigenvalues --    1.43616   1.45023   1.46464   1.47273   1.49370
 Alpha virt. eigenvalues --    1.49823   1.50474   1.51642   1.51868   1.52332
 Alpha virt. eigenvalues --    1.53715   1.54192   1.55429   1.56139   1.56449
 Alpha virt. eigenvalues --    1.56787   1.58484   1.59724   1.60390   1.60515
 Alpha virt. eigenvalues --    1.62131   1.63281   1.64921   1.66030   1.67548
 Alpha virt. eigenvalues --    1.68613   1.69177   1.70471   1.71323   1.74151
 Alpha virt. eigenvalues --    1.76826   1.77078   1.79017   1.79377   1.81040
 Alpha virt. eigenvalues --    1.82960   1.85919   1.88149   1.89702   1.90607
 Alpha virt. eigenvalues --    1.91370   1.94484   1.95008   1.97396   2.00540
 Alpha virt. eigenvalues --    2.00827   2.05450   2.07036   2.08350   2.08474
 Alpha virt. eigenvalues --    2.10896   2.13935   2.18605   2.20233   2.24594
 Alpha virt. eigenvalues --    2.27648   2.30685   2.37026   2.37401   2.38002
 Alpha virt. eigenvalues --    2.38279   2.39369   2.39931   2.40470   2.42149
 Alpha virt. eigenvalues --    2.42560   2.43755   2.45055   2.51016   2.54996
 Alpha virt. eigenvalues --    2.61160   2.64122   2.68329   2.71900   2.73264
 Alpha virt. eigenvalues --    2.76308   2.78779   2.81841   2.94681   2.99730
 Alpha virt. eigenvalues --    3.01875   3.09943   3.11450   3.15940   3.17849
 Alpha virt. eigenvalues --    3.24293   3.27129   3.35295   3.59304   3.74891
          Condensed to atoms (all electrons):
 Mulliken charges:
               1
     1  C    0.618930
     2  C   -0.108469
     3  S    0.374202
     4  S    0.296857
     5  C    1.040295
     6  C    1.131833
     7  C    0.787753
     8  N   -1.083281
     9  S    0.557089
    10  C   -1.129737
    11  N   -0.168029
    12  C   -1.100906
    13  N   -0.180360
    14  C   -0.853139
    15  N   -0.183037
 Sum of Mulliken charges =  -0.00000
 Mulliken charges with hydrogens summed into heavy atoms:
               1
     1  C    0.618930
     2  C   -0.108469
     3  S    0.374202
     4  S    0.296857
     5  C    1.040295
     6  C    1.131833
     7  C    0.787753
     8  N   -1.083281
     9  S    0.557089
    10  C   -1.129737
    11  N   -0.168029
    12  C   -1.100906
    13  N   -0.180360
    14  C   -0.853139
    15  N   -0.183037
 Electronic spatial extent (au):  <R**2>=          19444.5639
 Charge=             -0.0000 electrons
 Dipole moment (field-independent basis, Debye):
    X=             -3.9728    Y=              2.4370    Z=             -0.4752  Tot=              4.6848

 Test job not archived.
 1\1\GINC-CHIMERA-NODE23\SP\RM05\Gen\C8N4S3\CONNORNM\19-Jan-2019\0\\#T 
 M05/Gen test Massage SCF=(fermi,maxcyc=60)\\M05 opt\\0,1\C,0,-0.663852
 55,0.42388876,6.55092624\C,0,-0.85361655,0.82083272,5.19731929\S,0,-0.
 03399887,-1.13228461,7.07066218\S,0,-0.45061084,-0.19012709,3.80084695
 \C,0,1.08697872,-1.4856771,5.74301573\C,0,0.91828617,-1.11180197,4.447
 09742\C,0,-1.11623738,1.41873721,7.39409154\N,0,-1.39158263,1.99675441
 ,4.98363565\S,0,-1.74869368,2.72022421,6.43965077\C,0,2.20787784,-2.26
 610456,6.14996509\N,0,3.09102329,-2.92257173,6.52452884\C,0,1.85969208
 ,-1.48937435,3.44453273\N,0,2.58485693,-1.79878888,2.59052763\C,0,-1.1
 2735205,1.43342636,8.81001143\N,0,-1.15279808,1.45875631,9.9718233\\Ve
 rsion=AS64L-G09RevD.01\HF=-1724.761483\RMSD=5.150e-09\Dipole=-1.563008
 5,0.9587941,-0.1869545\Quadrupole=1.9899095,8.2406552,-10.2305648,7.51
 99506,-12.471895,8.1973444\PG=C01 [X(C8N4S3)]\\@


 FRICTION IS A DRAG,
 AND ENTROPY AIN'T WHAT IT USED TO BE.
 Job cpu time:       0 days  1 hours 36 minutes 21.2 seconds.
 File lengths (MBytes):  RWF=     58 Int=      0 D2E=      0 Chk=      6 Scr=      1
 Normal termination of Gaussian 09 at Sat Jan 19 11:02:05 2019.
