 Entering Gaussian System, Link 0=/data/szalewicgrp/connornm/opt/Gaussian/g09-M05-par/g09/g09
 AtFile(1): blind-aug.gbs
 Initial command:
 /data/szalewicgrp/connornm/opt/Gaussian/g09-M05-par/g09/l1.exe "/scratch/local/Gau-1999.inp" -scrdir="/scratch/local/"
 Entering Link 1 = /data/szalewicgrp/connornm/opt/Gaussian/g09-M05-par/g09/l1.exe PID=      2000.
  
 Copyright (c) 1988,1990,1992,1993,1995,1998,2003,2009,2013,
            Gaussian, Inc.  All Rights Reserved.
  
 This is part of the Gaussian(R) 09 program.  It is based on
 the Gaussian(R) 03 system (copyright 2003, Gaussian, Inc.),
 the Gaussian(R) 98 system (copyright 1998, Gaussian, Inc.),
 the Gaussian(R) 94 system (copyright 1995, Gaussian, Inc.),
 the Gaussian 92(TM) system (copyright 1992, Gaussian, Inc.),
 the Gaussian 90(TM) system (copyright 1990, Gaussian, Inc.),
 the Gaussian 88(TM) system (copyright 1988, Gaussian, Inc.),
 the Gaussian 86(TM) system (copyright 1986, Carnegie Mellon
 University), and the Gaussian 82(TM) system (copyright 1983,
 Carnegie Mellon University). Gaussian is a federally registered
 trademark of Gaussian, Inc.
  
 This software contains proprietary and confidential information,
 including trade secrets, belonging to Gaussian, Inc.
  
 This software is provided under written license and may be
 used, copied, transmitted, or stored only in accord with that
 written license.
  
 The following legend is applicable only to US Government
 contracts under FAR:
  
                    RESTRICTED RIGHTS LEGEND
  
 Use, reproduction and disclosure by the US Government is
 subject to restrictions as set forth in subparagraphs (a)
 and (c) of the Commercial Computer Software - Restricted
 Rights clause in FAR 52.227-19.
  
 Gaussian, Inc.
 340 Quinnipiac St., Bldg. 40, Wallingford CT 06492
  
  
 ---------------------------------------------------------------
 Warning -- This program may not be used in any manner that
 competes with the business of Gaussian, Inc. or will provide
 assistance to any competitor of Gaussian, Inc.  The licensee
 of this program is prohibited from giving any competitor of
 Gaussian, Inc. access to this program.  By using this program,
 the user acknowledges that Gaussian, Inc. is engaged in the
 business of creating and licensing software in the field of
 computational chemistry and represents and warrants to the
 licensee that it is not a competitor of Gaussian, Inc. and that
 it will not use this program in any manner prohibited above.
 ---------------------------------------------------------------
  

 Cite this work as:
 Gaussian 09, Revision D.01,
 M. J. Frisch, G. W. Trucks, H. B. Schlegel, G. E. Scuseria, 
 M. A. Robb, J. R. Cheeseman, G. Scalmani, V. Barone, B. Mennucci, 
 G. A. Petersson, H. Nakatsuji, M. Caricato, X. Li, H. P. Hratchian, 
 A. F. Izmaylov, J. Bloino, G. Zheng, J. L. Sonnenberg, M. Hada, 
 M. Ehara, K. Toyota, R. Fukuda, J. Hasegawa, M. Ishida, T. Nakajima, 
 Y. Honda, O. Kitao, H. Nakai, T. Vreven, J. A. Montgomery, Jr., 
 J. E. Peralta, F. Ogliaro, M. Bearpark, J. J. Heyd, E. Brothers, 
 K. N. Kudin, V. N. Staroverov, T. Keith, R. Kobayashi, J. Normand, 
 K. Raghavachari, A. Rendell, J. C. Burant, S. S. Iyengar, J. Tomasi, 
 M. Cossi, N. Rega, J. M. Millam, M. Klene, J. E. Knox, J. B. Cross, 
 V. Bakken, C. Adamo, J. Jaramillo, R. Gomperts, R. E. Stratmann, 
 O. Yazyev, A. J. Austin, R. Cammi, C. Pomelli, J. W. Ochterski, 
 R. L. Martin, K. Morokuma, V. G. Zakrzewski, G. A. Voth, 
 P. Salvador, J. J. Dannenberg, S. Dapprich, A. D. Daniels, 
 O. Farkas, J. B. Foresman, J. V. Ortiz, J. Cioslowski, 
 and D. J. Fox, Gaussian, Inc., Wallingford CT, 2013.
 
 ******************************************
 Gaussian 09:  AS64L-G09RevD.01 24-Apr-2013
                19-Jan-2019 
 ******************************************
 %Chk=BLIND00247_mB
 %Mem=1GB
 %NProcShared=48
 Will use up to   48 processors via shared memory.
 ---------------------------------------------
 #T M05/Gen test Massage SCF=(fermi,maxcyc=60)
 ---------------------------------------------
 -------
 M05 opt
 -------
 Symbolic Z-matrix:
 Charge =  0 Multiplicity = 1
 6                     0.53531  -0.82672   5.07696 
 6                     1.33106   0.21715   5.62735 
 16                   -1.14012  -1.15107   5.49677 
 16                    0.74399   1.39162   6.81502 
 6                    -1.71301   0.49372   5.82933 
 6                    -0.96372   1.49948   6.35339 
 6                     1.30004  -1.58919   4.21722 
 7                     2.58424   0.2833    5.24914 
 16                    2.91601  -0.96228   4.19587 
 6                    -3.09504   0.67547   5.53261 
 7                    -4.22974   0.76828   5.29799 
 6                    -1.53602   2.77679   6.62705 
 7                    -1.96697   3.82294   6.8931 
 6                     0.91142  -2.72692   3.46908 
 7                     0.61237  -3.66753   2.85514 
 
                    Distance matrix (angstroms):
                    1          2          3          4          5
     1  C    0.000000
     2  C    1.423315   0.000000
     3  S    1.757418   2.827694   0.000000
     4  S    2.825849   1.770477   3.428253   0.000000
     5  C    2.713774   3.063280   1.773167   2.795470   0.000000
     6  C    3.047557   2.727187   2.791121   1.772288   1.359281
     7  C    1.380327   2.291783   2.789903   3.992857   4.001979
     8  N    2.336642   1.310672   3.998700   2.658358   4.341342
     9  S    2.542129   2.439721   4.263822   4.137445   5.120151
    10  C    3.955208   4.450782   2.675676   4.110426   1.425163
    11  N    5.029770   5.597745   3.642685   5.237162   2.586817
    12  C    4.436049   3.971317   4.106384   2.674416   2.424897
    13  N    5.583831   5.047859   5.232040   3.642352   3.504263
    14  C    2.517432   3.674472   3.286888   5.309014   4.778168
    15  N    3.607292   4.826214   4.047461   6.425950   5.618639
                    6          7          8          9         10
     6  C    0.000000
     7  C    4.384939   0.000000
     8  N    3.909794   2.494036   0.000000
     9  S    5.076167   1.733444   1.664607   0.000000
    10  C    2.428007   5.116215   5.699860   6.371958   0.000000
    11  N    3.509330   6.107712   6.831389   7.434461   1.162408
    12  C    1.426163   5.736923   5.009263   6.301738   2.836178
    13  N    2.587713   6.864751   5.995430   7.349618   3.609722
    14  C    5.449573   1.416040   3.876636   2.767765   5.646781
    15  N    6.435818   2.578302   5.022796   3.797715   6.306769
                   11         12         13         14         15
    11  N    0.000000
    12  C    3.613393   0.000000
    13  N    4.122555   1.162293   0.000000
    14  C    6.480188   6.800997   7.931563   0.000000
    15  N    7.006418   7.769948   8.891861   1.162367   0.000000
 Symmetry turned off by external request.
 Framework group  C1[X(C8N4S3)]
 Deg. of freedom    39
 Rotational constants (GHZ):      0.7722167      0.3388923      0.2463240
   357 basis functions,   759 primitive gaussians,   387 cartesian basis functions
    62 alpha electrons       62 beta electrons
       nuclear repulsion energy      1166.1400394397 Hartrees.
 IMHF & INEx in M05                  599485                  400514
 NAtoms=   15 NActive=   15 NUniq=   15 SFac= 1.00D+00 NAtFMM=   60 NAOKFM=F Big=F
 PrsmSu:  requested number of processors reduced to:  34 ShMem   1 Linda.
 ExpMin= 3.99D-02 ExpMax= 1.11D+05 ExpMxC= 1.07D+03 IAcc=3 IRadAn=         5 AccDes= 0.00D+00
 Harris functional with IExCor= 1009 and IRadAn=       5 diagonalized for initial guess.
 HarFok:  IExCor= 1009 AccDes= 0.00D+00 IRadAn=         5 IDoV= 1 UseB2=F ITyADJ=14
 ICtDFT=  3500011 ScaDFX=  1.000000  1.000000  1.000000  1.000000
 FoFCou: FMM=F IPFlag=           0 FMFlag=      100000 FMFlg1=           0
         NFxFlg=           0 DoJE=T BraDBF=F KetDBF=T FulRan=T
         wScrn=  0.000000 ICntrl=     500 IOpCl=  0 I1Cent=   200000004 NGrid=           0
         NMat0=    1 NMatS0=      1 NMatT0=    0 NMatD0=    1 NMtDS0=    0 NMtDT0=    0
 Symmetry not used in FoFCou.
 SCF Done:  E(RM05) =  -1724.76147031     A.U. after   17 cycles
            NFock= 17  Conv=0.51D-08     -V/T= 2.0061

 **********************************************************************

            Population analysis using the SCF density.

 **********************************************************************

 Alpha  occ. eigenvalues --  -90.56430 -90.53636 -90.53182 -15.08622 -15.05417
 Alpha  occ. eigenvalues --  -15.04969 -15.04934 -10.89944 -10.89826 -10.89735
 Alpha  occ. eigenvalues --  -10.88752 -10.87414 -10.84947 -10.84331 -10.84310
 Alpha  occ. eigenvalues --   -8.57525  -8.55035  -8.54609  -6.40063  -6.39712
 Alpha  occ. eigenvalues --   -6.39401  -6.37597  -6.37282  -6.37163  -6.36853
 Alpha  occ. eigenvalues --   -6.36822  -6.36393  -1.20533  -1.12895  -1.12139
 Alpha  occ. eigenvalues --   -1.11337  -1.07643  -1.03801  -0.98824  -0.97396
 Alpha  occ. eigenvalues --   -0.88002  -0.84555  -0.82236  -0.73687  -0.71296
 Alpha  occ. eigenvalues --   -0.67839  -0.64612  -0.59530  -0.57258  -0.55386
 Alpha  occ. eigenvalues --   -0.53384  -0.52648  -0.52243  -0.51890  -0.50883
 Alpha  occ. eigenvalues --   -0.50387  -0.49356  -0.48215  -0.46805  -0.46074
 Alpha  occ. eigenvalues --   -0.45933  -0.45296  -0.43720  -0.43113  -0.39488
 Alpha  occ. eigenvalues --   -0.37627  -0.33119
 Alpha virt. eigenvalues --   -0.09329  -0.08268  -0.02098  -0.01263  -0.00501
 Alpha virt. eigenvalues --   -0.00362   0.00153   0.01254   0.02022   0.02228
 Alpha virt. eigenvalues --    0.02393   0.02957   0.03189   0.04002   0.04275
 Alpha virt. eigenvalues --    0.04487   0.05427   0.06006   0.06300   0.07067
 Alpha virt. eigenvalues --    0.07274   0.07524   0.07707   0.08289   0.08492
 Alpha virt. eigenvalues --    0.09373   0.10094   0.10395   0.10523   0.10812
 Alpha virt. eigenvalues --    0.11287   0.11391   0.11979   0.12527   0.13224
 Alpha virt. eigenvalues --    0.13488   0.13935   0.14453   0.15075   0.15191
 Alpha virt. eigenvalues --    0.15902   0.16279   0.16680   0.16811   0.17185
 Alpha virt. eigenvalues --    0.17359   0.17846   0.18614   0.19053   0.19564
 Alpha virt. eigenvalues --    0.19862   0.20246   0.20684   0.20938   0.21263
 Alpha virt. eigenvalues --    0.21882   0.22208   0.22579   0.22821   0.23612
 Alpha virt. eigenvalues --    0.23746   0.24108   0.24374   0.24702   0.25260
 Alpha virt. eigenvalues --    0.25695   0.25850   0.26228   0.26621   0.26748
 Alpha virt. eigenvalues --    0.27069   0.28334   0.29193   0.29660   0.30366
 Alpha virt. eigenvalues --    0.30712   0.32419   0.33455   0.34152   0.34716
 Alpha virt. eigenvalues --    0.34948   0.35470   0.36121   0.36936   0.37593
 Alpha virt. eigenvalues --    0.38153   0.39576   0.40730   0.41170   0.42051
 Alpha virt. eigenvalues --    0.42122   0.43485   0.44138   0.45739   0.45981
 Alpha virt. eigenvalues --    0.46962   0.48555   0.49575   0.50236   0.50604
 Alpha virt. eigenvalues --    0.51523   0.51859   0.53531   0.54166   0.54422
 Alpha virt. eigenvalues --    0.54702   0.55466   0.55735   0.55840   0.56454
 Alpha virt. eigenvalues --    0.57775   0.58139   0.58556   0.59219   0.60311
 Alpha virt. eigenvalues --    0.60552   0.61102   0.61585   0.62107   0.62709
 Alpha virt. eigenvalues --    0.63716   0.64719   0.64955   0.66005   0.66556
 Alpha virt. eigenvalues --    0.67685   0.68185   0.68808   0.70106   0.70416
 Alpha virt. eigenvalues --    0.71049   0.72862   0.73467   0.73859   0.75369
 Alpha virt. eigenvalues --    0.75564   0.76456   0.77061   0.77552   0.77842
 Alpha virt. eigenvalues --    0.78245   0.79255   0.79760   0.79881   0.81108
 Alpha virt. eigenvalues --    0.81535   0.82547   0.83278   0.83956   0.84872
 Alpha virt. eigenvalues --    0.85698   0.85938   0.87123   0.87251   0.88402
 Alpha virt. eigenvalues --    0.88458   0.89345   0.89667   0.89830   0.90731
 Alpha virt. eigenvalues --    0.91172   0.91721   0.92830   0.93721   0.94368
 Alpha virt. eigenvalues --    0.95433   0.95564   0.97325   0.98742   0.99311
 Alpha virt. eigenvalues --    0.99843   1.01208   1.02849   1.03575   1.04749
 Alpha virt. eigenvalues --    1.05759   1.06741   1.08036   1.08542   1.09636
 Alpha virt. eigenvalues --    1.10233   1.11399   1.13195   1.13605   1.14403
 Alpha virt. eigenvalues --    1.15323   1.17103   1.18346   1.20287   1.20632
 Alpha virt. eigenvalues --    1.21609   1.22700   1.23934   1.24221   1.26555
 Alpha virt. eigenvalues --    1.27342   1.29756   1.30250   1.32274   1.34124
 Alpha virt. eigenvalues --    1.37314   1.40082   1.40257   1.41566   1.42729
 Alpha virt. eigenvalues --    1.43617   1.45024   1.46464   1.47272   1.49370
 Alpha virt. eigenvalues --    1.49823   1.50473   1.51643   1.51870   1.52333
 Alpha virt. eigenvalues --    1.53716   1.54192   1.55433   1.56136   1.56448
 Alpha virt. eigenvalues --    1.56791   1.58487   1.59727   1.60390   1.60518
 Alpha virt. eigenvalues --    1.62131   1.63283   1.64922   1.66028   1.67547
 Alpha virt. eigenvalues --    1.68615   1.69176   1.70470   1.71323   1.74157
 Alpha virt. eigenvalues --    1.76826   1.77077   1.79018   1.79377   1.81042
 Alpha virt. eigenvalues --    1.82959   1.85921   1.88152   1.89703   1.90609
 Alpha virt. eigenvalues --    1.91369   1.94486   1.95007   1.97391   2.00539
 Alpha virt. eigenvalues --    2.00826   2.05448   2.07037   2.08349   2.08475
 Alpha virt. eigenvalues --    2.10896   2.13937   2.18610   2.20236   2.24597
 Alpha virt. eigenvalues --    2.27646   2.30687   2.37026   2.37402   2.38001
 Alpha virt. eigenvalues --    2.38279   2.39370   2.39929   2.40470   2.42150
 Alpha virt. eigenvalues --    2.42559   2.43754   2.45057   2.51017   2.54996
 Alpha virt. eigenvalues --    2.61155   2.64122   2.68329   2.71899   2.73263
 Alpha virt. eigenvalues --    2.76308   2.78780   2.81840   2.94681   2.99731
 Alpha virt. eigenvalues --    3.01877   3.09942   3.11450   3.15940   3.17851
 Alpha virt. eigenvalues --    3.24293   3.27129   3.35291   3.59305   3.74889
          Condensed to atoms (all electrons):
 Mulliken charges:
               1
     1  C    0.620860
     2  C   -0.108626
     3  S    0.373760
     4  S    0.297003
     5  C    1.041076
     6  C    1.131213
     7  C    0.786307
     8  N   -1.083405
     9  S    0.557401
    10  C   -1.130916
    11  N   -0.167830
    12  C   -1.100563
    13  N   -0.180444
    14  C   -0.852901
    15  N   -0.182936
 Sum of Mulliken charges =  -0.00000
 Mulliken charges with hydrogens summed into heavy atoms:
               1
     1  C    0.620860
     2  C   -0.108626
     3  S    0.373760
     4  S    0.297003
     5  C    1.041076
     6  C    1.131213
     7  C    0.786307
     8  N   -1.083405
     9  S    0.557401
    10  C   -1.130916
    11  N   -0.167830
    12  C   -1.100563
    13  N   -0.180444
    14  C   -0.852901
    15  N   -0.182936
 Electronic spatial extent (au):  <R**2>=          16651.0580
 Charge=             -0.0000 electrons
 Dipole moment (field-independent basis, Debye):
    X=              4.3807    Y=             -1.4758    Z=              0.7604  Tot=              4.6848

 Test job not archived.
 1\1\GINC-CHIMERA-NODE31\SP\RM05\Gen\C8N4S3\CONNORNM\19-Jan-2019\0\\#T 
 M05/Gen test Massage SCF=(fermi,maxcyc=60)\\M05 opt\\0,1\C,0,0.5353091
 9,-0.82672291,5.07695941\C,0,1.33106375,0.21715299,5.62734513\S,0,-1.1
 4012398,-1.15107023,5.49676788\S,0,0.74398819,1.39161686,6.81501733\C,
 0,-1.71301186,0.49371637,5.82933153\C,0,-0.96372039,1.49948402,6.35339
 047\C,0,1.30003619,-1.58918736,4.21722469\N,0,2.58423765,0.28329677,5.
 24913859\S,0,2.91600604,-0.96228081,4.19586601\C,0,-3.09504485,0.67546
 786,5.53261471\N,0,-4.22973901,0.76828398,5.29799297\C,0,-1.53602343,2
 .77679466,6.62704846\N,0,-1.96696731,3.82294434,6.89310178\C,0,0.91141
 852,-2.72691566,3.46908094\N,0,0.61236641,-3.66752502,2.85514464\\Vers
 ion=AS64L-G09RevD.01\HF=-1724.7614703\RMSD=5.138e-09\Dipole=1.7235119,
 -0.5806426,0.2991596\Quadrupole=-2.7497235,-8.7621924,11.5119159,4.510
 5727,16.1930327,-13.9839263\PG=C01 [X(C8N4S3)]\\@


 HE THAT IS UNAWARE OF HIS IGNORANCE WILL BE MISLED BY HIS KNOWLEDGE.

                                        -- WHATLEY
 Job cpu time:       0 days  1 hours 56 minutes 56.1 seconds.
 File lengths (MBytes):  RWF=     58 Int=      0 D2E=      0 Chk=      6 Scr=      1
 Normal termination of Gaussian 09 at Sat Jan 19 10:46:14 2019.
