 Entering Gaussian System, Link 0=/data/szalewicgrp/connornm/opt/Gaussian/g09-M05-par/g09/g09
 AtFile(1): blind-aug.gbs
 Initial command:
 /data/szalewicgrp/connornm/opt/Gaussian/g09-M05-par/g09/l1.exe "/scratch/local/Gau-5474.inp" -scrdir="/scratch/local/"
 Entering Link 1 = /data/szalewicgrp/connornm/opt/Gaussian/g09-M05-par/g09/l1.exe PID=      5475.
  
 Copyright (c) 1988,1990,1992,1993,1995,1998,2003,2009,2013,
            Gaussian, Inc.  All Rights Reserved.
  
 This is part of the Gaussian(R) 09 program.  It is based on
 the Gaussian(R) 03 system (copyright 2003, Gaussian, Inc.),
 the Gaussian(R) 98 system (copyright 1998, Gaussian, Inc.),
 the Gaussian(R) 94 system (copyright 1995, Gaussian, Inc.),
 the Gaussian 92(TM) system (copyright 1992, Gaussian, Inc.),
 the Gaussian 90(TM) system (copyright 1990, Gaussian, Inc.),
 the Gaussian 88(TM) system (copyright 1988, Gaussian, Inc.),
 the Gaussian 86(TM) system (copyright 1986, Carnegie Mellon
 University), and the Gaussian 82(TM) system (copyright 1983,
 Carnegie Mellon University). Gaussian is a federally registered
 trademark of Gaussian, Inc.
  
 This software contains proprietary and confidential information,
 including trade secrets, belonging to Gaussian, Inc.
  
 This software is provided under written license and may be
 used, copied, transmitted, or stored only in accord with that
 written license.
  
 The following legend is applicable only to US Government
 contracts under FAR:
  
                    RESTRICTED RIGHTS LEGEND
  
 Use, reproduction and disclosure by the US Government is
 subject to restrictions as set forth in subparagraphs (a)
 and (c) of the Commercial Computer Software - Restricted
 Rights clause in FAR 52.227-19.
  
 Gaussian, Inc.
 340 Quinnipiac St., Bldg. 40, Wallingford CT 06492
  
  
 ---------------------------------------------------------------
 Warning -- This program may not be used in any manner that
 competes with the business of Gaussian, Inc. or will provide
 assistance to any competitor of Gaussian, Inc.  The licensee
 of this program is prohibited from giving any competitor of
 Gaussian, Inc. access to this program.  By using this program,
 the user acknowledges that Gaussian, Inc. is engaged in the
 business of creating and licensing software in the field of
 computational chemistry and represents and warrants to the
 licensee that it is not a competitor of Gaussian, Inc. and that
 it will not use this program in any manner prohibited above.
 ---------------------------------------------------------------
  

 Cite this work as:
 Gaussian 09, Revision D.01,
 M. J. Frisch, G. W. Trucks, H. B. Schlegel, G. E. Scuseria, 
 M. A. Robb, J. R. Cheeseman, G. Scalmani, V. Barone, B. Mennucci, 
 G. A. Petersson, H. Nakatsuji, M. Caricato, X. Li, H. P. Hratchian, 
 A. F. Izmaylov, J. Bloino, G. Zheng, J. L. Sonnenberg, M. Hada, 
 M. Ehara, K. Toyota, R. Fukuda, J. Hasegawa, M. Ishida, T. Nakajima, 
 Y. Honda, O. Kitao, H. Nakai, T. Vreven, J. A. Montgomery, Jr., 
 J. E. Peralta, F. Ogliaro, M. Bearpark, J. J. Heyd, E. Brothers, 
 K. N. Kudin, V. N. Staroverov, T. Keith, R. Kobayashi, J. Normand, 
 K. Raghavachari, A. Rendell, J. C. Burant, S. S. Iyengar, J. Tomasi, 
 M. Cossi, N. Rega, J. M. Millam, M. Klene, J. E. Knox, J. B. Cross, 
 V. Bakken, C. Adamo, J. Jaramillo, R. Gomperts, R. E. Stratmann, 
 O. Yazyev, A. J. Austin, R. Cammi, C. Pomelli, J. W. Ochterski, 
 R. L. Martin, K. Morokuma, V. G. Zakrzewski, G. A. Voth, 
 P. Salvador, J. J. Dannenberg, S. Dapprich, A. D. Daniels, 
 O. Farkas, J. B. Foresman, J. V. Ortiz, J. Cioslowski, 
 and D. J. Fox, Gaussian, Inc., Wallingford CT, 2013.
 
 ******************************************
 Gaussian 09:  AS64L-G09RevD.01 24-Apr-2013
                19-Jan-2019 
 ******************************************
 %Chk=BLIND00262_mB
 %Mem=1GB
 %NProcShared=48
 Will use up to   48 processors via shared memory.
 ---------------------------------------------
 #T M05/Gen test Massage SCF=(fermi,maxcyc=60)
 ---------------------------------------------
 -------
 M05 opt
 -------
 Symbolic Z-matrix:
 Charge =  0 Multiplicity = 1
 6                     0.25795   0.96546   6.45866 
 6                     1.33721   0.04592   6.33427 
 16                   -1.43298   0.5874    6.16485 
 16                    1.144    -1.65668   5.88885 
 6                    -1.47902  -1.10736   6.68425 
 6                    -0.45582  -1.99515   6.57223 
 6                     0.74817   2.21637   6.77526 
 7                     2.54805   0.50717   6.5317 
 16                    2.47773   2.13749   6.86037 
 6                    -2.74445  -1.49668   7.21169 
 7                    -3.80037  -1.77307   7.6115 
 6                    -0.61287  -3.35305   6.97891 
 7                    -0.70507  -4.47454   7.26992 
 6                     0.02673   3.41781   6.97828 
 7                    -0.54849   4.41498   7.13913 
 
                    Distance matrix (angstroms):
                    1          2          3          4          5
     1  C    0.000000
     2  C    1.423315   0.000000
     3  S    1.757418   2.827694   0.000000
     4  S    2.825849   1.770477   3.428253   0.000000
     5  C    2.713774   3.063280   1.773167   2.795470   0.000000
     6  C    3.047557   2.727187   2.791121   1.772288   1.359281
     7  C    1.380327   2.291783   2.789903   3.992857   4.001979
     8  N    2.336642   1.310672   3.998700   2.658358   4.341342
     9  S    2.542129   2.439721   4.263822   4.137445   5.120151
    10  C    3.955208   4.450782   2.675676   4.110426   1.425163
    11  N    5.029770   5.597745   3.642685   5.237162   2.586817
    12  C    4.436049   3.971317   4.106384   2.674416   2.424897
    13  N    5.583831   5.047859   5.232040   3.642352   3.504263
    14  C    2.517432   3.674472   3.286888   5.309014   4.778168
    15  N    3.607292   4.826214   4.047461   6.425950   5.618639
                    6          7          8          9         10
     6  C    0.000000
     7  C    4.384939   0.000000
     8  N    3.909794   2.494036   0.000000
     9  S    5.076167   1.733444   1.664607   0.000000
    10  C    2.428007   5.116215   5.699860   6.371958   0.000000
    11  N    3.509330   6.107712   6.831389   7.434461   1.162408
    12  C    1.426163   5.736923   5.009263   6.301738   2.836178
    13  N    2.587713   6.864751   5.995430   7.349618   3.609722
    14  C    5.449573   1.416040   3.876636   2.767765   5.646781
    15  N    6.435818   2.578302   5.022796   3.797715   6.306769
                   11         12         13         14         15
    11  N    0.000000
    12  C    3.613393   0.000000
    13  N    4.122555   1.162293   0.000000
    14  C    6.480188   6.800997   7.931563   0.000000
    15  N    7.006418   7.769948   8.891861   1.162367   0.000000
 Symmetry turned off by external request.
 Framework group  C1[X(C8N4S3)]
 Deg. of freedom    39
 Rotational constants (GHZ):      0.7722167      0.3388923      0.2463240
   357 basis functions,   759 primitive gaussians,   387 cartesian basis functions
    62 alpha electrons       62 beta electrons
       nuclear repulsion energy      1166.1400402783 Hartrees.
 IMHF & INEx in M05                  599485                  400514
 NAtoms=   15 NActive=   15 NUniq=   15 SFac= 1.00D+00 NAtFMM=   60 NAOKFM=F Big=F
 PrsmSu:  requested number of processors reduced to:  34 ShMem   1 Linda.
 ExpMin= 3.99D-02 ExpMax= 1.11D+05 ExpMxC= 1.07D+03 IAcc=3 IRadAn=         5 AccDes= 0.00D+00
 Harris functional with IExCor= 1009 and IRadAn=       5 diagonalized for initial guess.
 HarFok:  IExCor= 1009 AccDes= 0.00D+00 IRadAn=         5 IDoV= 1 UseB2=F ITyADJ=14
 ICtDFT=  3500011 ScaDFX=  1.000000  1.000000  1.000000  1.000000
 FoFCou: FMM=F IPFlag=           0 FMFlag=      100000 FMFlg1=           0
         NFxFlg=           0 DoJE=T BraDBF=F KetDBF=T FulRan=T
         wScrn=  0.000000 ICntrl=     500 IOpCl=  0 I1Cent=   200000004 NGrid=           0
         NMat0=    1 NMatS0=      1 NMatT0=    0 NMatD0=    1 NMtDS0=    0 NMtDT0=    0
 Symmetry not used in FoFCou.
 SCF Done:  E(RM05) =  -1724.76146734     A.U. after   17 cycles
            NFock= 17  Conv=0.51D-08     -V/T= 2.0061

 **********************************************************************

            Population analysis using the SCF density.

 **********************************************************************

 Alpha  occ. eigenvalues --  -90.56430 -90.53636 -90.53181 -15.08623 -15.05416
 Alpha  occ. eigenvalues --  -15.04969 -15.04934 -10.89944 -10.89826 -10.89736
 Alpha  occ. eigenvalues --  -10.88752 -10.87414 -10.84946 -10.84331 -10.84310
 Alpha  occ. eigenvalues --   -8.57526  -8.55036  -8.54608  -6.40063  -6.39713
 Alpha  occ. eigenvalues --   -6.39401  -6.37597  -6.37283  -6.37162  -6.36852
 Alpha  occ. eigenvalues --   -6.36822  -6.36391  -1.20534  -1.12895  -1.12139
 Alpha  occ. eigenvalues --   -1.11337  -1.07643  -1.03801  -0.98824  -0.97395
 Alpha  occ. eigenvalues --   -0.88002  -0.84555  -0.82236  -0.73686  -0.71296
 Alpha  occ. eigenvalues --   -0.67838  -0.64612  -0.59530  -0.57258  -0.55386
 Alpha  occ. eigenvalues --   -0.53385  -0.52647  -0.52242  -0.51890  -0.50883
 Alpha  occ. eigenvalues --   -0.50387  -0.49356  -0.48215  -0.46805  -0.46074
 Alpha  occ. eigenvalues --   -0.45933  -0.45296  -0.43720  -0.43113  -0.39488
 Alpha  occ. eigenvalues --   -0.37627  -0.33119
 Alpha virt. eigenvalues --   -0.09329  -0.08269  -0.02098  -0.01263  -0.00503
 Alpha virt. eigenvalues --   -0.00362   0.00153   0.01255   0.02020   0.02228
 Alpha virt. eigenvalues --    0.02395   0.02957   0.03189   0.04002   0.04275
 Alpha virt. eigenvalues --    0.04484   0.05427   0.06006   0.06299   0.07067
 Alpha virt. eigenvalues --    0.07273   0.07524   0.07707   0.08288   0.08491
 Alpha virt. eigenvalues --    0.09374   0.10093   0.10390   0.10522   0.10814
 Alpha virt. eigenvalues --    0.11288   0.11389   0.11978   0.12528   0.13226
 Alpha virt. eigenvalues --    0.13491   0.13934   0.14457   0.15075   0.15192
 Alpha virt. eigenvalues --    0.15905   0.16277   0.16676   0.16811   0.17188
 Alpha virt. eigenvalues --    0.17359   0.17843   0.18610   0.19047   0.19563
 Alpha virt. eigenvalues --    0.19861   0.20241   0.20680   0.20936   0.21268
 Alpha virt. eigenvalues --    0.21877   0.22207   0.22586   0.22824   0.23616
 Alpha virt. eigenvalues --    0.23749   0.24113   0.24370   0.24703   0.25257
 Alpha virt. eigenvalues --    0.25693   0.25852   0.26223   0.26623   0.26742
 Alpha virt. eigenvalues --    0.27069   0.28332   0.29195   0.29664   0.30365
 Alpha virt. eigenvalues --    0.30710   0.32419   0.33455   0.34153   0.34716
 Alpha virt. eigenvalues --    0.34951   0.35469   0.36121   0.36935   0.37593
 Alpha virt. eigenvalues --    0.38149   0.39578   0.40727   0.41171   0.42052
 Alpha virt. eigenvalues --    0.42119   0.43487   0.44137   0.45737   0.45984
 Alpha virt. eigenvalues --    0.46961   0.48552   0.49576   0.50236   0.50598
 Alpha virt. eigenvalues --    0.51526   0.51860   0.53526   0.54167   0.54425
 Alpha virt. eigenvalues --    0.54701   0.55472   0.55738   0.55837   0.56455
 Alpha virt. eigenvalues --    0.57776   0.58140   0.58560   0.59216   0.60312
 Alpha virt. eigenvalues --    0.60551   0.61100   0.61587   0.62108   0.62709
 Alpha virt. eigenvalues --    0.63717   0.64719   0.64957   0.66006   0.66554
 Alpha virt. eigenvalues --    0.67687   0.68188   0.68803   0.70107   0.70414
 Alpha virt. eigenvalues --    0.71046   0.72861   0.73467   0.73854   0.75370
 Alpha virt. eigenvalues --    0.75563   0.76454   0.77060   0.77551   0.77841
 Alpha virt. eigenvalues --    0.78241   0.79254   0.79759   0.79877   0.81106
 Alpha virt. eigenvalues --    0.81539   0.82548   0.83277   0.83959   0.84872
 Alpha virt. eigenvalues --    0.85699   0.85940   0.87124   0.87248   0.88404
 Alpha virt. eigenvalues --    0.88458   0.89345   0.89667   0.89829   0.90730
 Alpha virt. eigenvalues --    0.91171   0.91724   0.92829   0.93719   0.94368
 Alpha virt. eigenvalues --    0.95432   0.95561   0.97324   0.98743   0.99311
 Alpha virt. eigenvalues --    0.99849   1.01204   1.02849   1.03573   1.04748
 Alpha virt. eigenvalues --    1.05761   1.06746   1.08040   1.08543   1.09634
 Alpha virt. eigenvalues --    1.10232   1.11402   1.13198   1.13605   1.14405
 Alpha virt. eigenvalues --    1.15322   1.17098   1.18349   1.20285   1.20634
 Alpha virt. eigenvalues --    1.21608   1.22702   1.23935   1.24223   1.26561
 Alpha virt. eigenvalues --    1.27344   1.29757   1.30247   1.32271   1.34124
 Alpha virt. eigenvalues --    1.37312   1.40085   1.40257   1.41565   1.42733
 Alpha virt. eigenvalues --    1.43619   1.45023   1.46463   1.47273   1.49371
 Alpha virt. eigenvalues --    1.49820   1.50475   1.51643   1.51870   1.52334
 Alpha virt. eigenvalues --    1.53716   1.54194   1.55430   1.56139   1.56451
 Alpha virt. eigenvalues --    1.56789   1.58484   1.59728   1.60390   1.60517
 Alpha virt. eigenvalues --    1.62129   1.63285   1.64918   1.66027   1.67546
 Alpha virt. eigenvalues --    1.68615   1.69172   1.70472   1.71324   1.74151
 Alpha virt. eigenvalues --    1.76826   1.77078   1.79017   1.79378   1.81043
 Alpha virt. eigenvalues --    1.82960   1.85922   1.88147   1.89703   1.90606
 Alpha virt. eigenvalues --    1.91370   1.94486   1.95006   1.97392   2.00541
 Alpha virt. eigenvalues --    2.00828   2.05449   2.07035   2.08351   2.08474
 Alpha virt. eigenvalues --    2.10897   2.13937   2.18608   2.20235   2.24594
 Alpha virt. eigenvalues --    2.27646   2.30687   2.37025   2.37401   2.38002
 Alpha virt. eigenvalues --    2.38279   2.39370   2.39930   2.40471   2.42151
 Alpha virt. eigenvalues --    2.42560   2.43754   2.45055   2.51013   2.54995
 Alpha virt. eigenvalues --    2.61154   2.64128   2.68330   2.71900   2.73263
 Alpha virt. eigenvalues --    2.76309   2.78780   2.81840   2.94680   2.99731
 Alpha virt. eigenvalues --    3.01875   3.09943   3.11451   3.15939   3.17851
 Alpha virt. eigenvalues --    3.24294   3.27130   3.35297   3.59305   3.74894
          Condensed to atoms (all electrons):
 Mulliken charges:
               1
     1  C    0.619050
     2  C   -0.107929
     3  S    0.374040
     4  S    0.297335
     5  C    1.039821
     6  C    1.131804
     7  C    0.787043
     8  N   -1.083550
     9  S    0.557275
    10  C   -1.129537
    11  N   -0.167984
    12  C   -1.100607
    13  N   -0.180575
    14  C   -0.853189
    15  N   -0.182997
 Sum of Mulliken charges =  -0.00000
 Mulliken charges with hydrogens summed into heavy atoms:
               1
     1  C    0.619050
     2  C   -0.107929
     3  S    0.374040
     4  S    0.297335
     5  C    1.039821
     6  C    1.131804
     7  C    0.787043
     8  N   -1.083550
     9  S    0.557275
    10  C   -1.129537
    11  N   -0.167984
    12  C   -1.100607
    13  N   -0.180575
    14  C   -0.853189
    15  N   -0.182997
 Electronic spatial extent (au):  <R**2>=          23703.0267
 Charge=             -0.0000 electrons
 Dipole moment (field-independent basis, Debye):
    X=              3.7382    Y=              2.0754    Z=             -1.9165  Tot=              4.6855

 Test job not archived.
 1\1\GINC-CHIMERA-NODE25\SP\RM05\Gen\C8N4S3\CONNORNM\19-Jan-2019\0\\#T 
 M05/Gen test Massage SCF=(fermi,maxcyc=60)\\M05 opt\\0,1\C,0,0.2579535
 8,0.96546432,6.45866221\C,0,1.3372092,0.04592042,6.33427182\S,0,-1.432
 9801,0.58740026,6.16484678\S,0,1.14400164,-1.65668258,5.8888482\C,0,-1
 .4790178,-1.10736246,6.68425214\C,0,-0.45582207,-1.99514909,6.57222788
 \C,0,0.74817283,2.21636665,6.77525607\N,0,2.54804784,0.50717237,6.5316
 9635\S,0,2.47772808,2.13749333,6.86036882\C,0,-2.74445492,-1.49668194,
 7.21168827\N,0,-3.80036908,-1.77307085,7.61149759\C,0,-0.61287452,-3.3
 5304607,6.97891237\N,0,-0.70507209,-4.47453673,7.26991826\C,0,0.026725
 56,3.41780835,6.97828345\N,0,-0.54848573,4.41498324,7.1391254\\Version
 =AS64L-G09RevD.01\HF=-1724.7614673\RMSD=5.144e-09\Dipole=1.4707266,0.8
 165111,-0.7540003\Quadrupole=7.5733399,-5.0046802,-2.5686597,-0.007902
 8,22.5376459,12.8772194\PG=C01 [X(C8N4S3)]\\@


          EVOLUTION
 IN THE BEGINNING GOD MADE MAN.
 HE WORKED THE DIRT WITH HIS HANDS.
 THEN GOD DECIDED TO GIVE MAN SCIENCE,
 MAN SHOULD BE USEFUL (LIKE AN APPLIANCE.)
 BUT SOON MAN'S KNOWLEDGE GREW TOO GREAT,
 TO THE HEADING SCIENCE HE COULDN'T RELATE
 SO GOD SAID "LETS HAVE DIFFERENT FIELDS,
 WE'LL DIVIDE THEM UP, SEE WHAT IT YIELDS."
 ENTER PHYSICS, CHEMISTRY, BIO
 THEY SPRANG UP AROUND THE NILE.
 BUT CHEMISTRY SURPASSED THE REST
 FAR AND AWAY IT WAS THE BEST.
 EXPERIMENT WAS GOD'S DECREE
 EXPERIMENT DID CHEMISTS WITH LOTS OF GLEE
 BUT SOON THEIR TESTS BEGAN TO BOG,
 THEY FOUND THEMSELVES DEEP IN A FOG.
 "GIVE US SOME HELP" THEY CRIED TO GOD.
 GOD LOOKED AROUND, THEN GAVE THE NOD.
 ENTER EINSTEIN, HEISENBERG, BOHR,
 REACTION PATHS WERE CLEAR ONCE MORE.
 WITH THEORISTS GOD SEND DIRECTION
 AND THEN HE STOPPED, HE'D MADE PERFECTION.
          -- THOMAS A. HOLME, 1981
 Job cpu time:       0 days  1 hours 37 minutes 10.7 seconds.
 File lengths (MBytes):  RWF=     58 Int=      0 D2E=      0 Chk=      6 Scr=      1
 Normal termination of Gaussian 09 at Sat Jan 19 11:12:40 2019.
