 Entering Gaussian System, Link 0=/data/szalewicgrp/connornm/opt/Gaussian/g09-M05-par/g09/g09
 AtFile(1): blind-aug.gbs
 Initial command:
 /data/szalewicgrp/connornm/opt/Gaussian/g09-M05-par/g09/l1.exe "/scratch/local/Gau-36205.inp" -scrdir="/scratch/local/"
 Entering Link 1 = /data/szalewicgrp/connornm/opt/Gaussian/g09-M05-par/g09/l1.exe PID=     36206.
  
 Copyright (c) 1988,1990,1992,1993,1995,1998,2003,2009,2013,
            Gaussian, Inc.  All Rights Reserved.
  
 This is part of the Gaussian(R) 09 program.  It is based on
 the Gaussian(R) 03 system (copyright 2003, Gaussian, Inc.),
 the Gaussian(R) 98 system (copyright 1998, Gaussian, Inc.),
 the Gaussian(R) 94 system (copyright 1995, Gaussian, Inc.),
 the Gaussian 92(TM) system (copyright 1992, Gaussian, Inc.),
 the Gaussian 90(TM) system (copyright 1990, Gaussian, Inc.),
 the Gaussian 88(TM) system (copyright 1988, Gaussian, Inc.),
 the Gaussian 86(TM) system (copyright 1986, Carnegie Mellon
 University), and the Gaussian 82(TM) system (copyright 1983,
 Carnegie Mellon University). Gaussian is a federally registered
 trademark of Gaussian, Inc.
  
 This software contains proprietary and confidential information,
 including trade secrets, belonging to Gaussian, Inc.
  
 This software is provided under written license and may be
 used, copied, transmitted, or stored only in accord with that
 written license.
  
 The following legend is applicable only to US Government
 contracts under FAR:
  
                    RESTRICTED RIGHTS LEGEND
  
 Use, reproduction and disclosure by the US Government is
 subject to restrictions as set forth in subparagraphs (a)
 and (c) of the Commercial Computer Software - Restricted
 Rights clause in FAR 52.227-19.
  
 Gaussian, Inc.
 340 Quinnipiac St., Bldg. 40, Wallingford CT 06492
  
  
 ---------------------------------------------------------------
 Warning -- This program may not be used in any manner that
 competes with the business of Gaussian, Inc. or will provide
 assistance to any competitor of Gaussian, Inc.  The licensee
 of this program is prohibited from giving any competitor of
 Gaussian, Inc. access to this program.  By using this program,
 the user acknowledges that Gaussian, Inc. is engaged in the
 business of creating and licensing software in the field of
 computational chemistry and represents and warrants to the
 licensee that it is not a competitor of Gaussian, Inc. and that
 it will not use this program in any manner prohibited above.
 ---------------------------------------------------------------
  

 Cite this work as:
 Gaussian 09, Revision D.01,
 M. J. Frisch, G. W. Trucks, H. B. Schlegel, G. E. Scuseria, 
 M. A. Robb, J. R. Cheeseman, G. Scalmani, V. Barone, B. Mennucci, 
 G. A. Petersson, H. Nakatsuji, M. Caricato, X. Li, H. P. Hratchian, 
 A. F. Izmaylov, J. Bloino, G. Zheng, J. L. Sonnenberg, M. Hada, 
 M. Ehara, K. Toyota, R. Fukuda, J. Hasegawa, M. Ishida, T. Nakajima, 
 Y. Honda, O. Kitao, H. Nakai, T. Vreven, J. A. Montgomery, Jr., 
 J. E. Peralta, F. Ogliaro, M. Bearpark, J. J. Heyd, E. Brothers, 
 K. N. Kudin, V. N. Staroverov, T. Keith, R. Kobayashi, J. Normand, 
 K. Raghavachari, A. Rendell, J. C. Burant, S. S. Iyengar, J. Tomasi, 
 M. Cossi, N. Rega, J. M. Millam, M. Klene, J. E. Knox, J. B. Cross, 
 V. Bakken, C. Adamo, J. Jaramillo, R. Gomperts, R. E. Stratmann, 
 O. Yazyev, A. J. Austin, R. Cammi, C. Pomelli, J. W. Ochterski, 
 R. L. Martin, K. Morokuma, V. G. Zakrzewski, G. A. Voth, 
 P. Salvador, J. J. Dannenberg, S. Dapprich, A. D. Daniels, 
 O. Farkas, J. B. Foresman, J. V. Ortiz, J. Cioslowski, 
 and D. J. Fox, Gaussian, Inc., Wallingford CT, 2013.
 
 ******************************************
 Gaussian 09:  AS64L-G09RevD.01 24-Apr-2013
                19-Jan-2019 
 ******************************************
 %Chk=BLIND01244_mB
 %Mem=1GB
 %NProcShared=48
 Will use up to   48 processors via shared memory.
 ---------------------------------------------
 #T M05/Gen test Massage SCF=(fermi,maxcyc=60)
 ---------------------------------------------
 -------
 M05 opt
 -------
 Symbolic Z-matrix:
 Charge =  0 Multiplicity = 1
 6                     0.28471  -0.40697   6.82428 
 6                    -1.118    -0.19136   6.93272 
 16                    1.52184   0.566     7.60618 
 16                   -1.85263   1.08852   7.91088 
 6                     0.67778   1.0227    9.09719 
 6                    -0.66039   1.23048   9.2145 
 6                     0.52791  -1.45138   5.95516 
 7                    -1.90403  -0.97407   6.2346 
 16                   -0.98446  -2.03881   5.34484 
 6                     1.55684   1.20697   10.20371 
 7                     2.3153    1.36845   11.06965 
 6                    -1.23452   1.64283   10.45316 
 7                    -1.74117   2.00716   11.43372 
 6                     1.77501  -1.98816   5.55294 
 7                     2.78992  -2.43517   5.20474 
 
                    Distance matrix (angstroms):
                    1          2          3          4          5
     1  C    0.000000
     2  C    1.423315   0.000000
     3  S    1.757418   2.827694   0.000000
     4  S    2.825849   1.770477   3.428253   0.000000
     5  C    2.713774   3.063280   1.773167   2.795470   0.000000
     6  C    3.047557   2.727187   2.791121   1.772288   1.359281
     7  C    1.380327   2.291783   2.789903   3.992857   4.001979
     8  N    2.336642   1.310672   3.998700   2.658358   4.341342
     9  S    2.542129   2.439721   4.263822   4.137445   5.120151
    10  C    3.955208   4.450782   2.675676   4.110426   1.425163
    11  N    5.029770   5.597745   3.642685   5.237162   2.586817
    12  C    4.436049   3.971317   4.106384   2.674416   2.424897
    13  N    5.583831   5.047859   5.232040   3.642352   3.504263
    14  C    2.517432   3.674472   3.286888   5.309014   4.778168
    15  N    3.607292   4.826214   4.047461   6.425950   5.618639
                    6          7          8          9         10
     6  C    0.000000
     7  C    4.384939   0.000000
     8  N    3.909794   2.494036   0.000000
     9  S    5.076167   1.733444   1.664607   0.000000
    10  C    2.428007   5.116215   5.699860   6.371958   0.000000
    11  N    3.509330   6.107712   6.831389   7.434461   1.162408
    12  C    1.426163   5.736923   5.009263   6.301738   2.836178
    13  N    2.587713   6.864751   5.995430   7.349618   3.609722
    14  C    5.449573   1.416040   3.876636   2.767765   5.646781
    15  N    6.435818   2.578302   5.022796   3.797715   6.306769
                   11         12         13         14         15
    11  N    0.000000
    12  C    3.613393   0.000000
    13  N    4.122555   1.162293   0.000000
    14  C    6.480188   6.800997   7.931563   0.000000
    15  N    7.006418   7.769948   8.891861   1.162367   0.000000
 Symmetry turned off by external request.
 Framework group  C1[X(C8N4S3)]
 Deg. of freedom    39
 Rotational constants (GHZ):      0.7722167      0.3388923      0.2463240
   357 basis functions,   759 primitive gaussians,   387 cartesian basis functions
    62 alpha electrons       62 beta electrons
       nuclear repulsion energy      1166.1400399444 Hartrees.
 IMHF & INEx in M05                  599485                  400514
 NAtoms=   15 NActive=   15 NUniq=   15 SFac= 1.00D+00 NAtFMM=   60 NAOKFM=F Big=F
 PrsmSu:  requested number of processors reduced to:  34 ShMem   1 Linda.
 ExpMin= 3.99D-02 ExpMax= 1.11D+05 ExpMxC= 1.07D+03 IAcc=3 IRadAn=         5 AccDes= 0.00D+00
 Harris functional with IExCor= 1009 and IRadAn=       5 diagonalized for initial guess.
 HarFok:  IExCor= 1009 AccDes= 0.00D+00 IRadAn=         5 IDoV= 1 UseB2=F ITyADJ=14
 ICtDFT=  3500011 ScaDFX=  1.000000  1.000000  1.000000  1.000000
 FoFCou: FMM=F IPFlag=           0 FMFlag=      100000 FMFlg1=           0
         NFxFlg=           0 DoJE=T BraDBF=F KetDBF=T FulRan=T
         wScrn=  0.000000 ICntrl=     500 IOpCl=  0 I1Cent=   200000004 NGrid=           0
         NMat0=    1 NMatS0=      1 NMatT0=    0 NMatD0=    1 NMtDS0=    0 NMtDT0=    0
 Symmetry not used in FoFCou.
 SCF Done:  E(RM05) =  -1724.76148350     A.U. after   17 cycles
            NFock= 17  Conv=0.51D-08     -V/T= 2.0061

 **********************************************************************

            Population analysis using the SCF density.

 **********************************************************************

 Alpha  occ. eigenvalues --  -90.56430 -90.53635 -90.53181 -15.08621 -15.05416
 Alpha  occ. eigenvalues --  -15.04969 -15.04934 -10.89945 -10.89827 -10.89735
 Alpha  occ. eigenvalues --  -10.88752 -10.87414 -10.84946 -10.84332 -10.84311
 Alpha  occ. eigenvalues --   -8.57525  -8.55035  -8.54609  -6.40063  -6.39712
 Alpha  occ. eigenvalues --   -6.39401  -6.37597  -6.37282  -6.37162  -6.36852
 Alpha  occ. eigenvalues --   -6.36821  -6.36392  -1.20533  -1.12895  -1.12139
 Alpha  occ. eigenvalues --   -1.11337  -1.07643  -1.03801  -0.98824  -0.97396
 Alpha  occ. eigenvalues --   -0.88002  -0.84555  -0.82236  -0.73687  -0.71296
 Alpha  occ. eigenvalues --   -0.67838  -0.64612  -0.59530  -0.57258  -0.55386
 Alpha  occ. eigenvalues --   -0.53385  -0.52647  -0.52243  -0.51890  -0.50883
 Alpha  occ. eigenvalues --   -0.50387  -0.49356  -0.48215  -0.46805  -0.46074
 Alpha  occ. eigenvalues --   -0.45933  -0.45296  -0.43720  -0.43113  -0.39488
 Alpha  occ. eigenvalues --   -0.37627  -0.33120
 Alpha virt. eigenvalues --   -0.09329  -0.08268  -0.02099  -0.01263  -0.00504
 Alpha virt. eigenvalues --   -0.00361   0.00153   0.01255   0.02021   0.02230
 Alpha virt. eigenvalues --    0.02395   0.02957   0.03190   0.04001   0.04281
 Alpha virt. eigenvalues --    0.04486   0.05429   0.06007   0.06296   0.07069
 Alpha virt. eigenvalues --    0.07275   0.07527   0.07707   0.08289   0.08490
 Alpha virt. eigenvalues --    0.09378   0.10093   0.10395   0.10528   0.10810
 Alpha virt. eigenvalues --    0.11287   0.11391   0.11980   0.12529   0.13228
 Alpha virt. eigenvalues --    0.13489   0.13940   0.14453   0.15078   0.15192
 Alpha virt. eigenvalues --    0.15901   0.16270   0.16677   0.16813   0.17193
 Alpha virt. eigenvalues --    0.17360   0.17838   0.18614   0.19053   0.19562
 Alpha virt. eigenvalues --    0.19855   0.20244   0.20686   0.20953   0.21269
 Alpha virt. eigenvalues --    0.21883   0.22206   0.22585   0.22825   0.23616
 Alpha virt. eigenvalues --    0.23744   0.24116   0.24371   0.24703   0.25260
 Alpha virt. eigenvalues --    0.25695   0.25849   0.26229   0.26617   0.26748
 Alpha virt. eigenvalues --    0.27074   0.28335   0.29194   0.29663   0.30369
 Alpha virt. eigenvalues --    0.30711   0.32420   0.33458   0.34153   0.34712
 Alpha virt. eigenvalues --    0.34947   0.35470   0.36121   0.36936   0.37593
 Alpha virt. eigenvalues --    0.38154   0.39572   0.40725   0.41169   0.42047
 Alpha virt. eigenvalues --    0.42117   0.43485   0.44139   0.45733   0.45979
 Alpha virt. eigenvalues --    0.46957   0.48550   0.49571   0.50233   0.50597
 Alpha virt. eigenvalues --    0.51524   0.51857   0.53528   0.54167   0.54419
 Alpha virt. eigenvalues --    0.54699   0.55465   0.55734   0.55835   0.56450
 Alpha virt. eigenvalues --    0.57765   0.58139   0.58553   0.59214   0.60311
 Alpha virt. eigenvalues --    0.60547   0.61104   0.61587   0.62103   0.62710
 Alpha virt. eigenvalues --    0.63716   0.64717   0.64953   0.66007   0.66558
 Alpha virt. eigenvalues --    0.67688   0.68189   0.68804   0.70108   0.70412
 Alpha virt. eigenvalues --    0.71048   0.72862   0.73467   0.73856   0.75371
 Alpha virt. eigenvalues --    0.75565   0.76460   0.77063   0.77551   0.77842
 Alpha virt. eigenvalues --    0.78246   0.79255   0.79760   0.79879   0.81108
 Alpha virt. eigenvalues --    0.81534   0.82548   0.83276   0.83958   0.84871
 Alpha virt. eigenvalues --    0.85698   0.85939   0.87123   0.87247   0.88402
 Alpha virt. eigenvalues --    0.88459   0.89346   0.89666   0.89829   0.90728
 Alpha virt. eigenvalues --    0.91171   0.91726   0.92828   0.93720   0.94364
 Alpha virt. eigenvalues --    0.95432   0.95565   0.97323   0.98745   0.99312
 Alpha virt. eigenvalues --    0.99849   1.01207   1.02847   1.03575   1.04745
 Alpha virt. eigenvalues --    1.05757   1.06744   1.08039   1.08545   1.09635
 Alpha virt. eigenvalues --    1.10234   1.11402   1.13193   1.13608   1.14402
 Alpha virt. eigenvalues --    1.15321   1.17103   1.18343   1.20284   1.20634
 Alpha virt. eigenvalues --    1.21608   1.22701   1.23934   1.24221   1.26561
 Alpha virt. eigenvalues --    1.27344   1.29757   1.30251   1.32271   1.34126
 Alpha virt. eigenvalues --    1.37312   1.40082   1.40256   1.41564   1.42731
 Alpha virt. eigenvalues --    1.43617   1.45022   1.46461   1.47272   1.49368
 Alpha virt. eigenvalues --    1.49823   1.50474   1.51642   1.51867   1.52333
 Alpha virt. eigenvalues --    1.53715   1.54192   1.55431   1.56136   1.56448
 Alpha virt. eigenvalues --    1.56795   1.58486   1.59724   1.60391   1.60516
 Alpha virt. eigenvalues --    1.62131   1.63280   1.64922   1.66029   1.67547
 Alpha virt. eigenvalues --    1.68615   1.69175   1.70471   1.71323   1.74152
 Alpha virt. eigenvalues --    1.76827   1.77077   1.79016   1.79377   1.81040
 Alpha virt. eigenvalues --    1.82959   1.85920   1.88151   1.89705   1.90608
 Alpha virt. eigenvalues --    1.91369   1.94485   1.95006   1.97392   2.00540
 Alpha virt. eigenvalues --    2.00825   2.05448   2.07037   2.08351   2.08475
 Alpha virt. eigenvalues --    2.10896   2.13938   2.18605   2.20234   2.24593
 Alpha virt. eigenvalues --    2.27642   2.30686   2.37026   2.37401   2.38001
 Alpha virt. eigenvalues --    2.38279   2.39369   2.39931   2.40470   2.42149
 Alpha virt. eigenvalues --    2.42559   2.43755   2.45056   2.51012   2.54995
 Alpha virt. eigenvalues --    2.61156   2.64126   2.68330   2.71898   2.73264
 Alpha virt. eigenvalues --    2.76309   2.78780   2.81840   2.94680   2.99730
 Alpha virt. eigenvalues --    3.01877   3.09942   3.11450   3.15940   3.17849
 Alpha virt. eigenvalues --    3.24295   3.27131   3.35293   3.59307   3.74894
          Condensed to atoms (all electrons):
 Mulliken charges:
               1
     1  C    0.619976
     2  C   -0.109311
     3  S    0.374778
     4  S    0.296353
     5  C    1.039543
     6  C    1.131235
     7  C    0.786675
     8  N   -1.083281
     9  S    0.557457
    10  C   -1.129241
    11  N   -0.168057
    12  C   -1.099723
    13  N   -0.180627
    14  C   -0.852793
    15  N   -0.182983
 Sum of Mulliken charges =  -0.00000
 Mulliken charges with hydrogens summed into heavy atoms:
               1
     1  C    0.619976
     2  C   -0.109311
     3  S    0.374778
     4  S    0.296353
     5  C    1.039543
     6  C    1.131235
     7  C    0.786675
     8  N   -1.083281
     9  S    0.557457
    10  C   -1.129241
    11  N   -0.168057
    12  C   -1.099723
    13  N   -0.180627
    14  C   -0.852793
    15  N   -0.182983
 Electronic spatial extent (au):  <R**2>=          30424.8984
 Charge=             -0.0000 electrons
 Dipole moment (field-independent basis, Debye):
    X=             -2.1151    Y=             -0.7253    Z=             -4.1168  Tot=              4.6848

 Test job not archived.
 1\1\GINC-CHIMERA-NODE49\SP\RM05\Gen\C8N4S3\CONNORNM\19-Jan-2019\0\\#T 
 M05/Gen test Massage SCF=(fermi,maxcyc=60)\\M05 opt\\0,1\C,0,0.2847098
 4,-0.40696572,6.82427657\C,0,-1.11799506,-0.19135807,6.93271541\S,0,1.
 52183614,0.56600285,7.60617638\S,0,-1.85263416,1.0885187,7.91088164\C,
 0,0.67777912,1.02269622,9.09718979\C,0,-0.6603948,1.23047817,9.2144981
 8\C,0,0.52791127,-1.4513796,5.95516442\N,0,-1.90402515,-0.97407463,6.2
 3459544\S,0,-0.9844588,-2.03880705,5.34484294\C,0,1.55683954,1.2069703
 1,10.20370934\N,0,2.31530196,1.36844585,11.06965011\C,0,-1.23452329,1.
 64283196,10.45315987\N,0,-1.74116914,2.00715626,11.43372293\C,0,1.7750
 0775,-1.98815828,5.5529363\N,0,2.7899161,-2.43516664,5.20474025\\Versi
 on=AS64L-G09RevD.01\HF=-1724.7614835\RMSD=5.136e-09\Dipole=-0.8321401,
 -0.2853597,-1.619667\Quadrupole=13.4793427,23.6019709,-37.0813136,4.86
 39528,-8.8271038,-11.5862904\PG=C01 [X(C8N4S3)]\\@


 HONESTY IN A LAWYER IS LIKE A HEN'S HIND LEGS.
  -- MAGNUS OLESON, LAKE WOBEGON PATRIARCH, C.1875
 Job cpu time:       0 days  1 hours 49 minutes 50.3 seconds.
 File lengths (MBytes):  RWF=     58 Int=      0 D2E=      0 Chk=      6 Scr=      1
 Normal termination of Gaussian 09 at Sat Jan 19 10:58:43 2019.
