 Entering Gaussian System, Link 0=/data/szalewicgrp/connornm/opt/Gaussian/g09-M05-par/g09/g09
 AtFile(1): blind-aug.gbs
 Initial command:
 /data/szalewicgrp/connornm/opt/Gaussian/g09-M05-par/g09/l1.exe "/scratch/local/Gau-4108.inp" -scrdir="/scratch/local/"
 Entering Link 1 = /data/szalewicgrp/connornm/opt/Gaussian/g09-M05-par/g09/l1.exe PID=      4109.
  
 Copyright (c) 1988,1990,1992,1993,1995,1998,2003,2009,2013,
            Gaussian, Inc.  All Rights Reserved.
  
 This is part of the Gaussian(R) 09 program.  It is based on
 the Gaussian(R) 03 system (copyright 2003, Gaussian, Inc.),
 the Gaussian(R) 98 system (copyright 1998, Gaussian, Inc.),
 the Gaussian(R) 94 system (copyright 1995, Gaussian, Inc.),
 the Gaussian 92(TM) system (copyright 1992, Gaussian, Inc.),
 the Gaussian 90(TM) system (copyright 1990, Gaussian, Inc.),
 the Gaussian 88(TM) system (copyright 1988, Gaussian, Inc.),
 the Gaussian 86(TM) system (copyright 1986, Carnegie Mellon
 University), and the Gaussian 82(TM) system (copyright 1983,
 Carnegie Mellon University). Gaussian is a federally registered
 trademark of Gaussian, Inc.
  
 This software contains proprietary and confidential information,
 including trade secrets, belonging to Gaussian, Inc.
  
 This software is provided under written license and may be
 used, copied, transmitted, or stored only in accord with that
 written license.
  
 The following legend is applicable only to US Government
 contracts under FAR:
  
                    RESTRICTED RIGHTS LEGEND
  
 Use, reproduction and disclosure by the US Government is
 subject to restrictions as set forth in subparagraphs (a)
 and (c) of the Commercial Computer Software - Restricted
 Rights clause in FAR 52.227-19.
  
 Gaussian, Inc.
 340 Quinnipiac St., Bldg. 40, Wallingford CT 06492
  
  
 ---------------------------------------------------------------
 Warning -- This program may not be used in any manner that
 competes with the business of Gaussian, Inc. or will provide
 assistance to any competitor of Gaussian, Inc.  The licensee
 of this program is prohibited from giving any competitor of
 Gaussian, Inc. access to this program.  By using this program,
 the user acknowledges that Gaussian, Inc. is engaged in the
 business of creating and licensing software in the field of
 computational chemistry and represents and warrants to the
 licensee that it is not a competitor of Gaussian, Inc. and that
 it will not use this program in any manner prohibited above.
 ---------------------------------------------------------------
  

 Cite this work as:
 Gaussian 09, Revision D.01,
 M. J. Frisch, G. W. Trucks, H. B. Schlegel, G. E. Scuseria, 
 M. A. Robb, J. R. Cheeseman, G. Scalmani, V. Barone, B. Mennucci, 
 G. A. Petersson, H. Nakatsuji, M. Caricato, X. Li, H. P. Hratchian, 
 A. F. Izmaylov, J. Bloino, G. Zheng, J. L. Sonnenberg, M. Hada, 
 M. Ehara, K. Toyota, R. Fukuda, J. Hasegawa, M. Ishida, T. Nakajima, 
 Y. Honda, O. Kitao, H. Nakai, T. Vreven, J. A. Montgomery, Jr., 
 J. E. Peralta, F. Ogliaro, M. Bearpark, J. J. Heyd, E. Brothers, 
 K. N. Kudin, V. N. Staroverov, T. Keith, R. Kobayashi, J. Normand, 
 K. Raghavachari, A. Rendell, J. C. Burant, S. S. Iyengar, J. Tomasi, 
 M. Cossi, N. Rega, J. M. Millam, M. Klene, J. E. Knox, J. B. Cross, 
 V. Bakken, C. Adamo, J. Jaramillo, R. Gomperts, R. E. Stratmann, 
 O. Yazyev, A. J. Austin, R. Cammi, C. Pomelli, J. W. Ochterski, 
 R. L. Martin, K. Morokuma, V. G. Zakrzewski, G. A. Voth, 
 P. Salvador, J. J. Dannenberg, S. Dapprich, A. D. Daniels, 
 O. Farkas, J. B. Foresman, J. V. Ortiz, J. Cioslowski, 
 and D. J. Fox, Gaussian, Inc., Wallingford CT, 2013.
 
 ******************************************
 Gaussian 09:  AS64L-G09RevD.01 24-Apr-2013
                19-Jan-2019 
 ******************************************
 %Chk=BLIND01706_mA
 %Mem=1GB
 %NProcShared=48
 Will use up to   48 processors via shared memory.
 ---------------------------------------------
 #T M05/Gen test Massage SCF=(fermi,maxcyc=60)
 ---------------------------------------------
 -------
 M05 opt
 -------
 Symbolic Z-matrix:
 Charge =  0 Multiplicity = 1
 6                    -0.46743   0.90593  -0.04372 
 6                    -0.81243   0.03194  -1.11281 
 16                   -0.0244    0.39523   1.57845 
 16                   -0.81992  -1.7341   -0.98787 
 6                     0.78575  -1.14131   1.22235 
 6                     0.46706  -1.98416   0.20467 
 6                    -0.6029    2.21693  -0.45387 
 7                    -1.17763   0.58028  -2.24587 
 16                   -1.16288   2.2379   -2.09424 
 6                     1.81496  -1.46043   2.15508 
 7                     2.62801  -1.68851   2.9539 
 6                     1.1529   -3.22288   0.03391 
 7                     1.66451  -4.25424  -0.12574 
 6                    -0.37508   3.39925   0.29138 
 7                    -0.20183   4.37991   0.89085 
 
                    Distance matrix (angstroms):
                    1          2          3          4          5
     1  C    0.000000
     2  C    1.423315   0.000000
     3  S    1.757418   2.827694   0.000000
     4  S    2.825849   1.770477   3.428253   0.000000
     5  C    2.713774   3.063280   1.773167   2.795470   0.000000
     6  C    3.047557   2.727187   2.791121   1.772288   1.359281
     7  C    1.380327   2.291783   2.789903   3.992857   4.001979
     8  N    2.336642   1.310672   3.998700   2.658358   4.341342
     9  S    2.542129   2.439721   4.263822   4.137445   5.120151
    10  C    3.955208   4.450782   2.675676   4.110426   1.425163
    11  N    5.029770   5.597745   3.642685   5.237162   2.586817
    12  C    4.436049   3.971317   4.106384   2.674416   2.424897
    13  N    5.583831   5.047859   5.232040   3.642352   3.504263
    14  C    2.517432   3.674472   3.286888   5.309014   4.778168
    15  N    3.607292   4.826214   4.047461   6.425950   5.618639
                    6          7          8          9         10
     6  C    0.000000
     7  C    4.384939   0.000000
     8  N    3.909794   2.494036   0.000000
     9  S    5.076167   1.733444   1.664607   0.000000
    10  C    2.428007   5.116215   5.699860   6.371958   0.000000
    11  N    3.509330   6.107712   6.831389   7.434461   1.162408
    12  C    1.426163   5.736923   5.009263   6.301738   2.836178
    13  N    2.587713   6.864751   5.995430   7.349618   3.609722
    14  C    5.449573   1.416040   3.876636   2.767765   5.646781
    15  N    6.435818   2.578302   5.022796   3.797715   6.306769
                   11         12         13         14         15
    11  N    0.000000
    12  C    3.613393   0.000000
    13  N    4.122555   1.162293   0.000000
    14  C    6.480188   6.800997   7.931563   0.000000
    15  N    7.006418   7.769948   8.891861   1.162367   0.000000
 Symmetry turned off by external request.
 Framework group  C1[X(C8N4S3)]
 Deg. of freedom    39
 Rotational constants (GHZ):      0.7722167      0.3388923      0.2463240
   357 basis functions,   759 primitive gaussians,   387 cartesian basis functions
    62 alpha electrons       62 beta electrons
       nuclear repulsion energy      1166.1400399371 Hartrees.
 IMHF & INEx in M05                  599485                  400514
 NAtoms=   15 NActive=   15 NUniq=   15 SFac= 1.00D+00 NAtFMM=   60 NAOKFM=F Big=F
 PrsmSu:  requested number of processors reduced to:  34 ShMem   1 Linda.
 ExpMin= 3.99D-02 ExpMax= 1.11D+05 ExpMxC= 1.07D+03 IAcc=3 IRadAn=         5 AccDes= 0.00D+00
 Harris functional with IExCor= 1009 and IRadAn=       5 diagonalized for initial guess.
 HarFok:  IExCor= 1009 AccDes= 0.00D+00 IRadAn=         5 IDoV= 1 UseB2=F ITyADJ=14
 ICtDFT=  3500011 ScaDFX=  1.000000  1.000000  1.000000  1.000000
 FoFCou: FMM=F IPFlag=           0 FMFlag=      100000 FMFlg1=           0
         NFxFlg=           0 DoJE=T BraDBF=F KetDBF=T FulRan=T
         wScrn=  0.000000 ICntrl=     500 IOpCl=  0 I1Cent=   200000004 NGrid=           0
         NMat0=    1 NMatS0=      1 NMatT0=    0 NMatD0=    1 NMtDS0=    0 NMtDT0=    0
 Symmetry not used in FoFCou.
 SCF Done:  E(RM05) =  -1724.76146147     A.U. after   17 cycles
            NFock= 17  Conv=0.51D-08     -V/T= 2.0061

 **********************************************************************

            Population analysis using the SCF density.

 **********************************************************************

 Alpha  occ. eigenvalues --  -90.56430 -90.53635 -90.53184 -15.08622 -15.05416
 Alpha  occ. eigenvalues --  -15.04969 -15.04934 -10.89945 -10.89827 -10.89736
 Alpha  occ. eigenvalues --  -10.88751 -10.87414 -10.84946 -10.84332 -10.84311
 Alpha  occ. eigenvalues --   -8.57525  -8.55034  -8.54611  -6.40063  -6.39712
 Alpha  occ. eigenvalues --   -6.39401  -6.37596  -6.37281  -6.37165  -6.36855
 Alpha  occ. eigenvalues --   -6.36821  -6.36395  -1.20533  -1.12895  -1.12138
 Alpha  occ. eigenvalues --   -1.11338  -1.07643  -1.03801  -0.98824  -0.97396
 Alpha  occ. eigenvalues --   -0.88003  -0.84555  -0.82236  -0.73687  -0.71296
 Alpha  occ. eigenvalues --   -0.67838  -0.64612  -0.59530  -0.57258  -0.55386
 Alpha  occ. eigenvalues --   -0.53385  -0.52647  -0.52243  -0.51890  -0.50883
 Alpha  occ. eigenvalues --   -0.50387  -0.49357  -0.48216  -0.46805  -0.46075
 Alpha  occ. eigenvalues --   -0.45933  -0.45296  -0.43720  -0.43113  -0.39488
 Alpha  occ. eigenvalues --   -0.37627  -0.33120
 Alpha virt. eigenvalues --   -0.09330  -0.08268  -0.02098  -0.01262  -0.00501
 Alpha virt. eigenvalues --   -0.00361   0.00153   0.01255   0.02023   0.02230
 Alpha virt. eigenvalues --    0.02395   0.02957   0.03188   0.04004   0.04277
 Alpha virt. eigenvalues --    0.04489   0.05428   0.06007   0.06300   0.07068
 Alpha virt. eigenvalues --    0.07274   0.07525   0.07708   0.08293   0.08494
 Alpha virt. eigenvalues --    0.09377   0.10095   0.10395   0.10527   0.10815
 Alpha virt. eigenvalues --    0.11287   0.11392   0.11980   0.12527   0.13229
 Alpha virt. eigenvalues --    0.13489   0.13937   0.14458   0.15073   0.15194
 Alpha virt. eigenvalues --    0.15902   0.16272   0.16678   0.16814   0.17189
 Alpha virt. eigenvalues --    0.17361   0.17842   0.18614   0.19050   0.19568
 Alpha virt. eigenvalues --    0.19855   0.20241   0.20684   0.20945   0.21262
 Alpha virt. eigenvalues --    0.21872   0.22204   0.22584   0.22824   0.23615
 Alpha virt. eigenvalues --    0.23747   0.24110   0.24372   0.24703   0.25260
 Alpha virt. eigenvalues --    0.25695   0.25853   0.26230   0.26624   0.26745
 Alpha virt. eigenvalues --    0.27073   0.28335   0.29197   0.29664   0.30363
 Alpha virt. eigenvalues --    0.30712   0.32420   0.33455   0.34154   0.34717
 Alpha virt. eigenvalues --    0.34951   0.35469   0.36123   0.36936   0.37595
 Alpha virt. eigenvalues --    0.38154   0.39578   0.40729   0.41174   0.42052
 Alpha virt. eigenvalues --    0.42122   0.43487   0.44134   0.45738   0.45978
 Alpha virt. eigenvalues --    0.46956   0.48550   0.49574   0.50233   0.50604
 Alpha virt. eigenvalues --    0.51528   0.51856   0.53527   0.54165   0.54428
 Alpha virt. eigenvalues --    0.54700   0.55465   0.55739   0.55839   0.56452
 Alpha virt. eigenvalues --    0.57769   0.58138   0.58557   0.59216   0.60310
 Alpha virt. eigenvalues --    0.60551   0.61099   0.61587   0.62104   0.62713
 Alpha virt. eigenvalues --    0.63710   0.64713   0.64958   0.66007   0.66557
 Alpha virt. eigenvalues --    0.67687   0.68193   0.68806   0.70106   0.70417
 Alpha virt. eigenvalues --    0.71049   0.72864   0.73470   0.73852   0.75373
 Alpha virt. eigenvalues --    0.75566   0.76456   0.77061   0.77551   0.77846
 Alpha virt. eigenvalues --    0.78245   0.79253   0.79762   0.79880   0.81107
 Alpha virt. eigenvalues --    0.81535   0.82544   0.83277   0.83956   0.84870
 Alpha virt. eigenvalues --    0.85698   0.85939   0.87125   0.87250   0.88401
 Alpha virt. eigenvalues --    0.88459   0.89345   0.89665   0.89830   0.90734
 Alpha virt. eigenvalues --    0.91169   0.91724   0.92830   0.93722   0.94368
 Alpha virt. eigenvalues --    0.95434   0.95565   0.97327   0.98742   0.99313
 Alpha virt. eigenvalues --    0.99847   1.01207   1.02847   1.03576   1.04749
 Alpha virt. eigenvalues --    1.05759   1.06742   1.08036   1.08544   1.09636
 Alpha virt. eigenvalues --    1.10232   1.11404   1.13196   1.13606   1.14404
 Alpha virt. eigenvalues --    1.15322   1.17104   1.18345   1.20283   1.20629
 Alpha virt. eigenvalues --    1.21608   1.22703   1.23933   1.24221   1.26557
 Alpha virt. eigenvalues --    1.27344   1.29759   1.30251   1.32270   1.34127
 Alpha virt. eigenvalues --    1.37312   1.40079   1.40257   1.41565   1.42729
 Alpha virt. eigenvalues --    1.43616   1.45023   1.46462   1.47273   1.49369
 Alpha virt. eigenvalues --    1.49823   1.50475   1.51642   1.51868   1.52331
 Alpha virt. eigenvalues --    1.53717   1.54193   1.55434   1.56139   1.56455
 Alpha virt. eigenvalues --    1.56791   1.58484   1.59729   1.60390   1.60514
 Alpha virt. eigenvalues --    1.62128   1.63280   1.64922   1.66030   1.67547
 Alpha virt. eigenvalues --    1.68611   1.69173   1.70470   1.71324   1.74151
 Alpha virt. eigenvalues --    1.76827   1.77077   1.79012   1.79377   1.81037
 Alpha virt. eigenvalues --    1.82956   1.85919   1.88149   1.89706   1.90607
 Alpha virt. eigenvalues --    1.91370   1.94484   1.95007   1.97393   2.00540
 Alpha virt. eigenvalues --    2.00825   2.05449   2.07035   2.08348   2.08473
 Alpha virt. eigenvalues --    2.10897   2.13936   2.18606   2.20231   2.24593
 Alpha virt. eigenvalues --    2.27643   2.30684   2.37027   2.37403   2.38002
 Alpha virt. eigenvalues --    2.38280   2.39369   2.39930   2.40470   2.42150
 Alpha virt. eigenvalues --    2.42560   2.43756   2.45056   2.51022   2.54996
 Alpha virt. eigenvalues --    2.61157   2.64125   2.68329   2.71901   2.73264
 Alpha virt. eigenvalues --    2.76309   2.78780   2.81840   2.94681   2.99731
 Alpha virt. eigenvalues --    3.01878   3.09942   3.11450   3.15939   3.17848
 Alpha virt. eigenvalues --    3.24295   3.27126   3.35294   3.59307   3.74887
          Condensed to atoms (all electrons):
 Mulliken charges:
               1
     1  C    0.619973
     2  C   -0.109740
     3  S    0.374832
     4  S    0.296479
     5  C    1.040197
     6  C    1.132096
     7  C    0.787336
     8  N   -1.083107
     9  S    0.556983
    10  C   -1.130543
    11  N   -0.167866
    12  C   -1.100085
    13  N   -0.180380
    14  C   -0.853151
    15  N   -0.183024
 Sum of Mulliken charges =  -0.00000
 Mulliken charges with hydrogens summed into heavy atoms:
               1
     1  C    0.619973
     2  C   -0.109740
     3  S    0.374832
     4  S    0.296479
     5  C    1.040197
     6  C    1.132096
     7  C    0.787336
     8  N   -1.083107
     9  S    0.556983
    10  C   -1.130543
    11  N   -0.167866
    12  C   -1.100085
    13  N   -0.180380
    14  C   -0.853151
    15  N   -0.183024
 Electronic spatial extent (au):  <R**2>=           4013.7195
 Charge=             -0.0000 electrons
 Dipole moment (field-independent basis, Debye):
    X=             -3.5406    Y=              1.7629    Z=             -2.5109  Tot=              4.6849

 Test job not archived.
 1\1\GINC-CHIMERA-NODE27\SP\RM05\Gen\C8N4S3\CONNORNM\19-Jan-2019\0\\#T 
 M05/Gen test Massage SCF=(fermi,maxcyc=60)\\M05 opt\\0,1\C,0,-0.467432
 76,0.90592727,-0.04371847\C,0,-0.81243387,0.0319444,-1.11280912\S,0,-0
 .02440367,0.39523451,1.57845131\S,0,-0.81992372,-1.73410252,-0.9878669
 9\C,0,0.78574983,-1.14130876,1.22234997\C,0,0.46706275,-1.98416394,0.2
 0466744\C,0,-0.60290472,2.21692994,-0.4538679\N,0,-1.17762865,0.580275
 21,-2.24586963\S,0,-1.16288194,2.23789613,-2.09423752\C,0,1.81495527,-
 1.46043238,2.15508034\N,0,2.62801405,-1.68850691,2.9538985\C,0,1.15289
 757,-3.22287855,0.03390838\N,0,1.66450634,-4.25423504,-0.12573619\C,0,
 -0.37507952,3.39924758,0.29137644\N,0,-0.20182848,4.37991404,0.8908539
 5\\Version=AS64L-G09RevD.01\HF=-1724.7614615\RMSD=5.138e-09\Dipole=-1.
 3929914,0.693567,-0.9878713\Quadrupole=4.4231279,-9.0377028,4.6145749,
 6.1268532,-4.9297516,-3.9628054\PG=C01 [X(C8N4S3)]\\@


 SILVERMAN'S PARADOX - IF MURPHY'S LAW CAN GO WRONG, IT WILL.
 Job cpu time:       0 days  1 hours 48 minutes 24.8 seconds.
 File lengths (MBytes):  RWF=     58 Int=      0 D2E=      0 Chk=      6 Scr=      1
 Normal termination of Gaussian 09 at Sat Jan 19 10:48:17 2019.
