 Entering Gaussian System, Link 0=/data/szalewicgrp/connornm/opt/Gaussian/g09-M05-par/g09/g09
 AtFile(1): blind-aug.gbs
 Initial command:
 /data/szalewicgrp/connornm/opt/Gaussian/g09-M05-par/g09/l1.exe "/scratch/local/Gau-4778.inp" -scrdir="/scratch/local/"
 Entering Link 1 = /data/szalewicgrp/connornm/opt/Gaussian/g09-M05-par/g09/l1.exe PID=      4779.
  
 Copyright (c) 1988,1990,1992,1993,1995,1998,2003,2009,2013,
            Gaussian, Inc.  All Rights Reserved.
  
 This is part of the Gaussian(R) 09 program.  It is based on
 the Gaussian(R) 03 system (copyright 2003, Gaussian, Inc.),
 the Gaussian(R) 98 system (copyright 1998, Gaussian, Inc.),
 the Gaussian(R) 94 system (copyright 1995, Gaussian, Inc.),
 the Gaussian 92(TM) system (copyright 1992, Gaussian, Inc.),
 the Gaussian 90(TM) system (copyright 1990, Gaussian, Inc.),
 the Gaussian 88(TM) system (copyright 1988, Gaussian, Inc.),
 the Gaussian 86(TM) system (copyright 1986, Carnegie Mellon
 University), and the Gaussian 82(TM) system (copyright 1983,
 Carnegie Mellon University). Gaussian is a federally registered
 trademark of Gaussian, Inc.
  
 This software contains proprietary and confidential information,
 including trade secrets, belonging to Gaussian, Inc.
  
 This software is provided under written license and may be
 used, copied, transmitted, or stored only in accord with that
 written license.
  
 The following legend is applicable only to US Government
 contracts under FAR:
  
                    RESTRICTED RIGHTS LEGEND
  
 Use, reproduction and disclosure by the US Government is
 subject to restrictions as set forth in subparagraphs (a)
 and (c) of the Commercial Computer Software - Restricted
 Rights clause in FAR 52.227-19.
  
 Gaussian, Inc.
 340 Quinnipiac St., Bldg. 40, Wallingford CT 06492
  
  
 ---------------------------------------------------------------
 Warning -- This program may not be used in any manner that
 competes with the business of Gaussian, Inc. or will provide
 assistance to any competitor of Gaussian, Inc.  The licensee
 of this program is prohibited from giving any competitor of
 Gaussian, Inc. access to this program.  By using this program,
 the user acknowledges that Gaussian, Inc. is engaged in the
 business of creating and licensing software in the field of
 computational chemistry and represents and warrants to the
 licensee that it is not a competitor of Gaussian, Inc. and that
 it will not use this program in any manner prohibited above.
 ---------------------------------------------------------------
  

 Cite this work as:
 Gaussian 09, Revision D.01,
 M. J. Frisch, G. W. Trucks, H. B. Schlegel, G. E. Scuseria, 
 M. A. Robb, J. R. Cheeseman, G. Scalmani, V. Barone, B. Mennucci, 
 G. A. Petersson, H. Nakatsuji, M. Caricato, X. Li, H. P. Hratchian, 
 A. F. Izmaylov, J. Bloino, G. Zheng, J. L. Sonnenberg, M. Hada, 
 M. Ehara, K. Toyota, R. Fukuda, J. Hasegawa, M. Ishida, T. Nakajima, 
 Y. Honda, O. Kitao, H. Nakai, T. Vreven, J. A. Montgomery, Jr., 
 J. E. Peralta, F. Ogliaro, M. Bearpark, J. J. Heyd, E. Brothers, 
 K. N. Kudin, V. N. Staroverov, T. Keith, R. Kobayashi, J. Normand, 
 K. Raghavachari, A. Rendell, J. C. Burant, S. S. Iyengar, J. Tomasi, 
 M. Cossi, N. Rega, J. M. Millam, M. Klene, J. E. Knox, J. B. Cross, 
 V. Bakken, C. Adamo, J. Jaramillo, R. Gomperts, R. E. Stratmann, 
 O. Yazyev, A. J. Austin, R. Cammi, C. Pomelli, J. W. Ochterski, 
 R. L. Martin, K. Morokuma, V. G. Zakrzewski, G. A. Voth, 
 P. Salvador, J. J. Dannenberg, S. Dapprich, A. D. Daniels, 
 O. Farkas, J. B. Foresman, J. V. Ortiz, J. Cioslowski, 
 and D. J. Fox, Gaussian, Inc., Wallingford CT, 2013.
 
 ******************************************
 Gaussian 09:  AS64L-G09RevD.01 24-Apr-2013
                19-Jan-2019 
 ******************************************
 %Chk=BLIND01901_mB
 %Mem=1GB
 %NProcShared=48
 Will use up to   48 processors via shared memory.
 ---------------------------------------------
 #T M05/Gen test Massage SCF=(fermi,maxcyc=60)
 ---------------------------------------------
 -------
 M05 opt
 -------
 Symbolic Z-matrix:
 Charge =  0 Multiplicity = 1
 6                    -0.28882  -0.92309   9.92497 
 6                     0.7369   -0.33314   10.71598 
 16                   -1.53356  -0.03692   9.05673 
 16                    0.94573   1.41198   10.92935 
 6                    -0.64189   1.43472   8.62857 
 6                     0.33988   2.00757   9.37397 
 6                    -0.20061  -2.29848   10.00128 
 7                     1.55165  -1.14235   11.34782 
 16                    1.11094  -2.72031   11.05329 
 6                    -1.08511   2.02229   7.40816 
 7                    -1.4967    2.4768    6.42063 
 6                     0.96302   3.22195   8.96054 
 7                     1.47737   4.2251    8.67758 
 6                    -1.0259   -3.26807   9.38165 
 7                    -1.69871  -4.07751   8.88845 
 
                    Distance matrix (angstroms):
                    1          2          3          4          5
     1  C    0.000000
     2  C    1.423315   0.000000
     3  S    1.757418   2.827694   0.000000
     4  S    2.825849   1.770477   3.428253   0.000000
     5  C    2.713774   3.063280   1.773167   2.795470   0.000000
     6  C    3.047557   2.727187   2.791121   1.772288   1.359281
     7  C    1.380327   2.291783   2.789903   3.992857   4.001979
     8  N    2.336642   1.310672   3.998700   2.658358   4.341342
     9  S    2.542129   2.439721   4.263822   4.137445   5.120151
    10  C    3.955208   4.450782   2.675676   4.110426   1.425163
    11  N    5.029770   5.597745   3.642685   5.237162   2.586817
    12  C    4.436049   3.971317   4.106384   2.674416   2.424897
    13  N    5.583831   5.047859   5.232040   3.642352   3.504263
    14  C    2.517432   3.674472   3.286888   5.309014   4.778168
    15  N    3.607292   4.826214   4.047461   6.425950   5.618639
                    6          7          8          9         10
     6  C    0.000000
     7  C    4.384939   0.000000
     8  N    3.909794   2.494036   0.000000
     9  S    5.076167   1.733444   1.664607   0.000000
    10  C    2.428007   5.116215   5.699860   6.371958   0.000000
    11  N    3.509330   6.107712   6.831389   7.434461   1.162408
    12  C    1.426163   5.736923   5.009263   6.301738   2.836178
    13  N    2.587713   6.864751   5.995430   7.349618   3.609722
    14  C    5.449573   1.416040   3.876636   2.767765   5.646781
    15  N    6.435818   2.578302   5.022796   3.797715   6.306769
                   11         12         13         14         15
    11  N    0.000000
    12  C    3.613393   0.000000
    13  N    4.122555   1.162293   0.000000
    14  C    6.480188   6.800997   7.931563   0.000000
    15  N    7.006418   7.769948   8.891861   1.162367   0.000000
 Symmetry turned off by external request.
 Framework group  C1[X(C8N4S3)]
 Deg. of freedom    39
 Rotational constants (GHZ):      0.7722167      0.3388923      0.2463240
   357 basis functions,   759 primitive gaussians,   387 cartesian basis functions
    62 alpha electrons       62 beta electrons
       nuclear repulsion energy      1166.1400400870 Hartrees.
 IMHF & INEx in M05                  599485                  400514
 NAtoms=   15 NActive=   15 NUniq=   15 SFac= 1.00D+00 NAtFMM=   60 NAOKFM=F Big=F
 PrsmSu:  requested number of processors reduced to:  34 ShMem   1 Linda.
 ExpMin= 3.99D-02 ExpMax= 1.11D+05 ExpMxC= 1.07D+03 IAcc=3 IRadAn=         5 AccDes= 0.00D+00
 Harris functional with IExCor= 1009 and IRadAn=       5 diagonalized for initial guess.
 HarFok:  IExCor= 1009 AccDes= 0.00D+00 IRadAn=         5 IDoV= 1 UseB2=F ITyADJ=14
 ICtDFT=  3500011 ScaDFX=  1.000000  1.000000  1.000000  1.000000
 FoFCou: FMM=F IPFlag=           0 FMFlag=      100000 FMFlg1=           0
         NFxFlg=           0 DoJE=T BraDBF=F KetDBF=T FulRan=T
         wScrn=  0.000000 ICntrl=     500 IOpCl=  0 I1Cent=   200000004 NGrid=           0
         NMat0=    1 NMatS0=      1 NMatT0=    0 NMatD0=    1 NMtDS0=    0 NMtDT0=    0
 Symmetry not used in FoFCou.
 SCF Done:  E(RM05) =  -1724.76147624     A.U. after   17 cycles
            NFock= 17  Conv=0.51D-08     -V/T= 2.0061

 **********************************************************************

            Population analysis using the SCF density.

 **********************************************************************

 Alpha  occ. eigenvalues --  -90.56429 -90.53637 -90.53183 -15.08622 -15.05417
 Alpha  occ. eigenvalues --  -15.04969 -15.04934 -10.89944 -10.89826 -10.89736
 Alpha  occ. eigenvalues --  -10.88751 -10.87414 -10.84947 -10.84331 -10.84310
 Alpha  occ. eigenvalues --   -8.57525  -8.55036  -8.54610  -6.40062  -6.39712
 Alpha  occ. eigenvalues --   -6.39400  -6.37598  -6.37283  -6.37163  -6.36854
 Alpha  occ. eigenvalues --   -6.36822  -6.36393  -1.20533  -1.12895  -1.12139
 Alpha  occ. eigenvalues --   -1.11337  -1.07643  -1.03801  -0.98824  -0.97395
 Alpha  occ. eigenvalues --   -0.88002  -0.84555  -0.82236  -0.73686  -0.71296
 Alpha  occ. eigenvalues --   -0.67838  -0.64612  -0.59530  -0.57258  -0.55386
 Alpha  occ. eigenvalues --   -0.53385  -0.52648  -0.52243  -0.51890  -0.50883
 Alpha  occ. eigenvalues --   -0.50387  -0.49356  -0.48215  -0.46805  -0.46074
 Alpha  occ. eigenvalues --   -0.45933  -0.45296  -0.43720  -0.43113  -0.39488
 Alpha  occ. eigenvalues --   -0.37627  -0.33119
 Alpha virt. eigenvalues --   -0.09329  -0.08268  -0.02098  -0.01262  -0.00503
 Alpha virt. eigenvalues --   -0.00362   0.00153   0.01255   0.02020   0.02228
 Alpha virt. eigenvalues --    0.02394   0.02958   0.03189   0.04002   0.04275
 Alpha virt. eigenvalues --    0.04485   0.05428   0.06007   0.06296   0.07067
 Alpha virt. eigenvalues --    0.07270   0.07525   0.07707   0.08290   0.08489
 Alpha virt. eigenvalues --    0.09373   0.10097   0.10393   0.10524   0.10812
 Alpha virt. eigenvalues --    0.11285   0.11393   0.11981   0.12527   0.13225
 Alpha virt. eigenvalues --    0.13487   0.13938   0.14457   0.15073   0.15190
 Alpha virt. eigenvalues --    0.15901   0.16269   0.16674   0.16809   0.17189
 Alpha virt. eigenvalues --    0.17359   0.17832   0.18609   0.19046   0.19556
 Alpha virt. eigenvalues --    0.19862   0.20242   0.20684   0.20943   0.21261
 Alpha virt. eigenvalues --    0.21874   0.22200   0.22582   0.22820   0.23612
 Alpha virt. eigenvalues --    0.23746   0.24114   0.24371   0.24702   0.25261
 Alpha virt. eigenvalues --    0.25699   0.25847   0.26229   0.26622   0.26748
 Alpha virt. eigenvalues --    0.27074   0.28335   0.29197   0.29664   0.30366
 Alpha virt. eigenvalues --    0.30711   0.32419   0.33454   0.34152   0.34712
 Alpha virt. eigenvalues --    0.34949   0.35471   0.36123   0.36936   0.37594
 Alpha virt. eigenvalues --    0.38155   0.39581   0.40725   0.41169   0.42048
 Alpha virt. eigenvalues --    0.42119   0.43486   0.44135   0.45737   0.45980
 Alpha virt. eigenvalues --    0.46961   0.48555   0.49570   0.50238   0.50598
 Alpha virt. eigenvalues --    0.51525   0.51858   0.53527   0.54172   0.54425
 Alpha virt. eigenvalues --    0.54704   0.55464   0.55732   0.55834   0.56454
 Alpha virt. eigenvalues --    0.57772   0.58142   0.58552   0.59213   0.60308
 Alpha virt. eigenvalues --    0.60551   0.61102   0.61587   0.62102   0.62710
 Alpha virt. eigenvalues --    0.63717   0.64720   0.64954   0.66006   0.66558
 Alpha virt. eigenvalues --    0.67685   0.68191   0.68808   0.70106   0.70415
 Alpha virt. eigenvalues --    0.71047   0.72860   0.73472   0.73851   0.75369
 Alpha virt. eigenvalues --    0.75562   0.76454   0.77063   0.77554   0.77843
 Alpha virt. eigenvalues --    0.78244   0.79256   0.79760   0.79876   0.81109
 Alpha virt. eigenvalues --    0.81535   0.82545   0.83275   0.83956   0.84872
 Alpha virt. eigenvalues --    0.85696   0.85940   0.87124   0.87248   0.88404
 Alpha virt. eigenvalues --    0.88459   0.89343   0.89665   0.89830   0.90732
 Alpha virt. eigenvalues --    0.91172   0.91723   0.92827   0.93719   0.94368
 Alpha virt. eigenvalues --    0.95435   0.95563   0.97328   0.98743   0.99313
 Alpha virt. eigenvalues --    0.99846   1.01206   1.02844   1.03573   1.04751
 Alpha virt. eigenvalues --    1.05759   1.06742   1.08039   1.08542   1.09633
 Alpha virt. eigenvalues --    1.10235   1.11403   1.13194   1.13606   1.14404
 Alpha virt. eigenvalues --    1.15325   1.17102   1.18344   1.20284   1.20631
 Alpha virt. eigenvalues --    1.21610   1.22699   1.23933   1.24218   1.26560
 Alpha virt. eigenvalues --    1.27344   1.29757   1.30250   1.32267   1.34127
 Alpha virt. eigenvalues --    1.37311   1.40082   1.40257   1.41568   1.42728
 Alpha virt. eigenvalues --    1.43617   1.45024   1.46463   1.47271   1.49370
 Alpha virt. eigenvalues --    1.49823   1.50473   1.51643   1.51869   1.52333
 Alpha virt. eigenvalues --    1.53715   1.54194   1.55434   1.56137   1.56452
 Alpha virt. eigenvalues --    1.56793   1.58490   1.59728   1.60386   1.60520
 Alpha virt. eigenvalues --    1.62129   1.63279   1.64923   1.66028   1.67547
 Alpha virt. eigenvalues --    1.68616   1.69177   1.70472   1.71321   1.74150
 Alpha virt. eigenvalues --    1.76826   1.77075   1.79016   1.79376   1.81041
 Alpha virt. eigenvalues --    1.82956   1.85921   1.88149   1.89705   1.90608
 Alpha virt. eigenvalues --    1.91370   1.94484   1.95005   1.97393   2.00538
 Alpha virt. eigenvalues --    2.00827   2.05448   2.07036   2.08349   2.08474
 Alpha virt. eigenvalues --    2.10900   2.13936   2.18607   2.20233   2.24596
 Alpha virt. eigenvalues --    2.27644   2.30685   2.37026   2.37402   2.38001
 Alpha virt. eigenvalues --    2.38278   2.39370   2.39931   2.40470   2.42151
 Alpha virt. eigenvalues --    2.42558   2.43756   2.45056   2.51017   2.54996
 Alpha virt. eigenvalues --    2.61161   2.64131   2.68330   2.71901   2.73263
 Alpha virt. eigenvalues --    2.76308   2.78779   2.81841   2.94680   2.99732
 Alpha virt. eigenvalues --    3.01876   3.09941   3.11451   3.15939   3.17849
 Alpha virt. eigenvalues --    3.24293   3.27130   3.35295   3.59305   3.74893
          Condensed to atoms (all electrons):
 Mulliken charges:
               1
     1  C    0.619201
     2  C   -0.108437
     3  S    0.375199
     4  S    0.296267
     5  C    1.040369
     6  C    1.131959
     7  C    0.786670
     8  N   -1.083375
     9  S    0.557314
    10  C   -1.130763
    11  N   -0.167850
    12  C   -1.100427
    13  N   -0.180567
    14  C   -0.852603
    15  N   -0.182958
 Sum of Mulliken charges =  -0.00000
 Mulliken charges with hydrogens summed into heavy atoms:
               1
     1  C    0.619201
     2  C   -0.108437
     3  S    0.375199
     4  S    0.296267
     5  C    1.040369
     6  C    1.131959
     7  C    0.786670
     8  N   -1.083375
     9  S    0.557314
    10  C   -1.130763
    11  N   -0.167850
    12  C   -1.100427
    13  N   -0.180567
    14  C   -0.852603
    15  N   -0.182958
 Electronic spatial extent (au):  <R**2>=          44763.9175
 Charge=             -0.0000 electrons
 Dipole moment (field-independent basis, Debye):
    X=              0.7594    Y=             -2.5146    Z=              3.8795  Tot=              4.6852

 Test job not archived.
 1\1\GINC-CHIMERA-NODE51\SP\RM05\Gen\C8N4S3\CONNORNM\19-Jan-2019\0\\#T 
 M05/Gen test Massage SCF=(fermi,maxcyc=60)\\M05 opt\\0,1\C,0,-0.288816
 5,-0.92308635,9.92497005\C,0,0.73690212,-0.33314118,10.71597742\S,0,-1
 .53355977,-0.0369233,9.05672706\S,0,0.94572951,1.41198098,10.92935061\
 C,0,-0.6418949,1.43472169,8.62857191\C,0,0.33987756,2.00756938,9.37396
 604\C,0,-0.20061153,-2.2984771,10.00128119\N,0,1.55165045,-1.14235083,
 11.3478199\S,0,1.11093647,-2.72030583,11.05329304\C,0,-1.08511259,2.02
 228851,7.40815683\N,0,-1.49670116,2.47679517,6.42062881\C,0,0.96301532
 ,3.22194981,8.96053958\N,0,1.47736753,4.22509523,8.67757811\C,0,-1.025
 90481,-3.26807476,9.38165242\N,0,-1.69870695,-4.07751123,8.88845288\\V
 ersion=AS64L-G09RevD.01\HF=-1724.7614762\RMSD=5.146e-09\Dipole=0.29878
 81,-0.9893324,1.5263293\Quadrupole=-13.3291096,-26.0276894,39.356799,-
 8.046028,1.4547149,-14.2676731\PG=C01 [X(C8N4S3)]\\@


 UNDER MOST GREENE GRASSE LY MOST GREATE SNAKES.
 -- PROVERBS AND REASONS OF THE YEAR 1585
           AS REPRINTED IN PAISLEY MAGAZINE 1828.
 Job cpu time:       0 days  1 hours 49 minutes 14.8 seconds.
 File lengths (MBytes):  RWF=     58 Int=      0 D2E=      0 Chk=      6 Scr=      1
 Normal termination of Gaussian 09 at Sat Jan 19 10:47:42 2019.
