 Entering Gaussian System, Link 0=/data/szalewicgrp/connornm/opt/Gaussian/g09-M05-par/g09/g09
 AtFile(1): blind-aug.gbs
 Initial command:
 /data/szalewicgrp/connornm/opt/Gaussian/g09-M05-par/g09/l1.exe "/scratch/local/Gau-9017.inp" -scrdir="/scratch/local/"
 Entering Link 1 = /data/szalewicgrp/connornm/opt/Gaussian/g09-M05-par/g09/l1.exe PID=      9018.
  
 Copyright (c) 1988,1990,1992,1993,1995,1998,2003,2009,2013,
            Gaussian, Inc.  All Rights Reserved.
  
 This is part of the Gaussian(R) 09 program.  It is based on
 the Gaussian(R) 03 system (copyright 2003, Gaussian, Inc.),
 the Gaussian(R) 98 system (copyright 1998, Gaussian, Inc.),
 the Gaussian(R) 94 system (copyright 1995, Gaussian, Inc.),
 the Gaussian 92(TM) system (copyright 1992, Gaussian, Inc.),
 the Gaussian 90(TM) system (copyright 1990, Gaussian, Inc.),
 the Gaussian 88(TM) system (copyright 1988, Gaussian, Inc.),
 the Gaussian 86(TM) system (copyright 1986, Carnegie Mellon
 University), and the Gaussian 82(TM) system (copyright 1983,
 Carnegie Mellon University). Gaussian is a federally registered
 trademark of Gaussian, Inc.
  
 This software contains proprietary and confidential information,
 including trade secrets, belonging to Gaussian, Inc.
  
 This software is provided under written license and may be
 used, copied, transmitted, or stored only in accord with that
 written license.
  
 The following legend is applicable only to US Government
 contracts under FAR:
  
                    RESTRICTED RIGHTS LEGEND
  
 Use, reproduction and disclosure by the US Government is
 subject to restrictions as set forth in subparagraphs (a)
 and (c) of the Commercial Computer Software - Restricted
 Rights clause in FAR 52.227-19.
  
 Gaussian, Inc.
 340 Quinnipiac St., Bldg. 40, Wallingford CT 06492
  
  
 ---------------------------------------------------------------
 Warning -- This program may not be used in any manner that
 competes with the business of Gaussian, Inc. or will provide
 assistance to any competitor of Gaussian, Inc.  The licensee
 of this program is prohibited from giving any competitor of
 Gaussian, Inc. access to this program.  By using this program,
 the user acknowledges that Gaussian, Inc. is engaged in the
 business of creating and licensing software in the field of
 computational chemistry and represents and warrants to the
 licensee that it is not a competitor of Gaussian, Inc. and that
 it will not use this program in any manner prohibited above.
 ---------------------------------------------------------------
  

 Cite this work as:
 Gaussian 09, Revision D.01,
 M. J. Frisch, G. W. Trucks, H. B. Schlegel, G. E. Scuseria, 
 M. A. Robb, J. R. Cheeseman, G. Scalmani, V. Barone, B. Mennucci, 
 G. A. Petersson, H. Nakatsuji, M. Caricato, X. Li, H. P. Hratchian, 
 A. F. Izmaylov, J. Bloino, G. Zheng, J. L. Sonnenberg, M. Hada, 
 M. Ehara, K. Toyota, R. Fukuda, J. Hasegawa, M. Ishida, T. Nakajima, 
 Y. Honda, O. Kitao, H. Nakai, T. Vreven, J. A. Montgomery, Jr., 
 J. E. Peralta, F. Ogliaro, M. Bearpark, J. J. Heyd, E. Brothers, 
 K. N. Kudin, V. N. Staroverov, T. Keith, R. Kobayashi, J. Normand, 
 K. Raghavachari, A. Rendell, J. C. Burant, S. S. Iyengar, J. Tomasi, 
 M. Cossi, N. Rega, J. M. Millam, M. Klene, J. E. Knox, J. B. Cross, 
 V. Bakken, C. Adamo, J. Jaramillo, R. Gomperts, R. E. Stratmann, 
 O. Yazyev, A. J. Austin, R. Cammi, C. Pomelli, J. W. Ochterski, 
 R. L. Martin, K. Morokuma, V. G. Zakrzewski, G. A. Voth, 
 P. Salvador, J. J. Dannenberg, S. Dapprich, A. D. Daniels, 
 O. Farkas, J. B. Foresman, J. V. Ortiz, J. Cioslowski, 
 and D. J. Fox, Gaussian, Inc., Wallingford CT, 2013.
 
 ******************************************
 Gaussian 09:  AS64L-G09RevD.01 24-Apr-2013
                19-Jan-2019 
 ******************************************
 %Chk=BLIND00184_mA
 %Mem=1GB
 %NProcShared=48
 Will use up to   48 processors via shared memory.
 ---------------------------------------------
 #T M05/Gen test Massage SCF=(fermi,maxcyc=60)
 ---------------------------------------------
 -------
 M05 opt
 -------
 Symbolic Z-matrix:
 Charge =  0 Multiplicity = 1
 6                    -0.62771  -0.45572  -0.66287 
 6                    -0.3324   -1.24747   0.48244 
 16                   -0.69416   1.30023  -0.68983 
 16                    0.05181  -0.58129   2.07718 
 6                     0.5427    1.68792   0.52014 
 6                     0.83524   0.9404    1.61709 
 6                    -0.92403  -1.2777   -1.73145 
 7                    -0.3834   -2.54986   0.3445 
 16                   -0.83497  -2.92913  -1.21215 
 6                     1.20627   2.92327   0.26587 
 7                     1.702     3.94783   0.02979 
 6                     1.81939   1.36761   2.55671 
 7                     2.59179   1.69076   3.36286 
 6                    -1.28288  -0.90944  -3.05083 
 7                    -1.58785  -0.62533  -4.1359 
 
                    Distance matrix (angstroms):
                    1          2          3          4          5
     1  C    0.000000
     2  C    1.423315   0.000000
     3  S    1.757418   2.827694   0.000000
     4  S    2.825849   1.770477   3.428253   0.000000
     5  C    2.713774   3.063280   1.773167   2.795470   0.000000
     6  C    3.047557   2.727187   2.791121   1.772288   1.359281
     7  C    1.380327   2.291783   2.789903   3.992857   4.001979
     8  N    2.336642   1.310672   3.998700   2.658358   4.341342
     9  S    2.542129   2.439721   4.263822   4.137445   5.120151
    10  C    3.955208   4.450782   2.675676   4.110426   1.425163
    11  N    5.029770   5.597745   3.642685   5.237162   2.586817
    12  C    4.436049   3.971317   4.106384   2.674416   2.424897
    13  N    5.583831   5.047859   5.232040   3.642352   3.504263
    14  C    2.517432   3.674472   3.286888   5.309014   4.778168
    15  N    3.607292   4.826214   4.047461   6.425950   5.618639
                    6          7          8          9         10
     6  C    0.000000
     7  C    4.384939   0.000000
     8  N    3.909794   2.494036   0.000000
     9  S    5.076167   1.733444   1.664607   0.000000
    10  C    2.428007   5.116215   5.699860   6.371958   0.000000
    11  N    3.509330   6.107712   6.831389   7.434461   1.162408
    12  C    1.426163   5.736923   5.009263   6.301738   2.836178
    13  N    2.587713   6.864751   5.995430   7.349618   3.609722
    14  C    5.449573   1.416040   3.876636   2.767765   5.646781
    15  N    6.435818   2.578302   5.022796   3.797715   6.306769
                   11         12         13         14         15
    11  N    0.000000
    12  C    3.613393   0.000000
    13  N    4.122555   1.162293   0.000000
    14  C    6.480188   6.800997   7.931563   0.000000
    15  N    7.006418   7.769948   8.891861   1.162367   0.000000
 Symmetry turned off by external request.
 Framework group  C1[X(C8N4S3)]
 Deg. of freedom    39
 Rotational constants (GHZ):      0.7722167      0.3388923      0.2463240
   357 basis functions,   759 primitive gaussians,   387 cartesian basis functions
    62 alpha electrons       62 beta electrons
       nuclear repulsion energy      1166.1400396125 Hartrees.
 IMHF & INEx in M05                  599485                  400514
 NAtoms=   15 NActive=   15 NUniq=   15 SFac= 1.00D+00 NAtFMM=   60 NAOKFM=F Big=F
 PrsmSu:  requested number of processors reduced to:  34 ShMem   1 Linda.
 ExpMin= 3.99D-02 ExpMax= 1.11D+05 ExpMxC= 1.07D+03 IAcc=3 IRadAn=         5 AccDes= 0.00D+00
 Harris functional with IExCor= 1009 and IRadAn=       5 diagonalized for initial guess.
 HarFok:  IExCor= 1009 AccDes= 0.00D+00 IRadAn=         5 IDoV= 1 UseB2=F ITyADJ=14
 ICtDFT=  3500011 ScaDFX=  1.000000  1.000000  1.000000  1.000000
 FoFCou: FMM=F IPFlag=           0 FMFlag=      100000 FMFlg1=           0
         NFxFlg=           0 DoJE=T BraDBF=F KetDBF=T FulRan=T
         wScrn=  0.000000 ICntrl=     500 IOpCl=  0 I1Cent=   200000004 NGrid=           0
         NMat0=    1 NMatS0=      1 NMatT0=    0 NMatD0=    1 NMtDS0=    0 NMtDT0=    0
 Symmetry not used in FoFCou.
 SCF Done:  E(RM05) =  -1724.76149386     A.U. after   17 cycles
            NFock= 17  Conv=0.52D-08     -V/T= 2.0061

 **********************************************************************

            Population analysis using the SCF density.

 **********************************************************************

 Alpha  occ. eigenvalues --  -90.56431 -90.53636 -90.53179 -15.08622 -15.05417
 Alpha  occ. eigenvalues --  -15.04969 -15.04934 -10.89944 -10.89827 -10.89736
 Alpha  occ. eigenvalues --  -10.88753 -10.87414 -10.84947 -10.84331 -10.84311
 Alpha  occ. eigenvalues --   -8.57526  -8.55036  -8.54607  -6.40064  -6.39713
 Alpha  occ. eigenvalues --   -6.39401  -6.37597  -6.37283  -6.37161  -6.36851
 Alpha  occ. eigenvalues --   -6.36822  -6.36390  -1.20533  -1.12895  -1.12139
 Alpha  occ. eigenvalues --   -1.11337  -1.07643  -1.03801  -0.98824  -0.97396
 Alpha  occ. eigenvalues --   -0.88003  -0.84555  -0.82236  -0.73687  -0.71296
 Alpha  occ. eigenvalues --   -0.67839  -0.64612  -0.59530  -0.57258  -0.55386
 Alpha  occ. eigenvalues --   -0.53385  -0.52648  -0.52243  -0.51890  -0.50883
 Alpha  occ. eigenvalues --   -0.50387  -0.49356  -0.48215  -0.46805  -0.46074
 Alpha  occ. eigenvalues --   -0.45933  -0.45296  -0.43720  -0.43113  -0.39488
 Alpha  occ. eigenvalues --   -0.37628  -0.33119
 Alpha virt. eigenvalues --   -0.09329  -0.08269  -0.02098  -0.01263  -0.00504
 Alpha virt. eigenvalues --   -0.00361   0.00153   0.01254   0.02021   0.02227
 Alpha virt. eigenvalues --    0.02394   0.02958   0.03187   0.04002   0.04274
 Alpha virt. eigenvalues --    0.04488   0.05427   0.06005   0.06295   0.07067
 Alpha virt. eigenvalues --    0.07273   0.07524   0.07708   0.08290   0.08490
 Alpha virt. eigenvalues --    0.09375   0.10094   0.10395   0.10524   0.10810
 Alpha virt. eigenvalues --    0.11287   0.11391   0.11977   0.12527   0.13228
 Alpha virt. eigenvalues --    0.13486   0.13934   0.14457   0.15073   0.15191
 Alpha virt. eigenvalues --    0.15903   0.16272   0.16678   0.16812   0.17189
 Alpha virt. eigenvalues --    0.17362   0.17840   0.18611   0.19049   0.19563
 Alpha virt. eigenvalues --    0.19854   0.20241   0.20680   0.20939   0.21262
 Alpha virt. eigenvalues --    0.21878   0.22202   0.22578   0.22820   0.23615
 Alpha virt. eigenvalues --    0.23740   0.24113   0.24369   0.24703   0.25259
 Alpha virt. eigenvalues --    0.25695   0.25854   0.26229   0.26625   0.26748
 Alpha virt. eigenvalues --    0.27069   0.28334   0.29195   0.29660   0.30365
 Alpha virt. eigenvalues --    0.30711   0.32421   0.33455   0.34154   0.34715
 Alpha virt. eigenvalues --    0.34950   0.35471   0.36119   0.36936   0.37594
 Alpha virt. eigenvalues --    0.38154   0.39574   0.40726   0.41170   0.42052
 Alpha virt. eigenvalues --    0.42120   0.43485   0.44132   0.45736   0.45975
 Alpha virt. eigenvalues --    0.46958   0.48551   0.49566   0.50235   0.50604
 Alpha virt. eigenvalues --    0.51522   0.51856   0.53527   0.54166   0.54423
 Alpha virt. eigenvalues --    0.54701   0.55464   0.55735   0.55839   0.56455
 Alpha virt. eigenvalues --    0.57774   0.58139   0.58555   0.59214   0.60310
 Alpha virt. eigenvalues --    0.60554   0.61100   0.61586   0.62104   0.62713
 Alpha virt. eigenvalues --    0.63713   0.64719   0.64957   0.66007   0.66556
 Alpha virt. eigenvalues --    0.67690   0.68192   0.68806   0.70110   0.70415
 Alpha virt. eigenvalues --    0.71048   0.72864   0.73468   0.73855   0.75371
 Alpha virt. eigenvalues --    0.75565   0.76459   0.77061   0.77549   0.77843
 Alpha virt. eigenvalues --    0.78243   0.79255   0.79761   0.79880   0.81109
 Alpha virt. eigenvalues --    0.81536   0.82545   0.83278   0.83957   0.84870
 Alpha virt. eigenvalues --    0.85698   0.85939   0.87121   0.87248   0.88401
 Alpha virt. eigenvalues --    0.88460   0.89345   0.89665   0.89830   0.90732
 Alpha virt. eigenvalues --    0.91170   0.91724   0.92830   0.93718   0.94370
 Alpha virt. eigenvalues --    0.95433   0.95568   0.97326   0.98743   0.99312
 Alpha virt. eigenvalues --    0.99847   1.01205   1.02848   1.03577   1.04749
 Alpha virt. eigenvalues --    1.05757   1.06748   1.08039   1.08546   1.09637
 Alpha virt. eigenvalues --    1.10233   1.11402   1.13197   1.13605   1.14405
 Alpha virt. eigenvalues --    1.15321   1.17100   1.18344   1.20284   1.20631
 Alpha virt. eigenvalues --    1.21607   1.22703   1.23936   1.24219   1.26560
 Alpha virt. eigenvalues --    1.27346   1.29758   1.30250   1.32274   1.34123
 Alpha virt. eigenvalues --    1.37313   1.40083   1.40259   1.41565   1.42731
 Alpha virt. eigenvalues --    1.43614   1.45024   1.46462   1.47273   1.49370
 Alpha virt. eigenvalues --    1.49825   1.50473   1.51641   1.51867   1.52334
 Alpha virt. eigenvalues --    1.53715   1.54193   1.55431   1.56137   1.56448
 Alpha virt. eigenvalues --    1.56792   1.58487   1.59728   1.60392   1.60517
 Alpha virt. eigenvalues --    1.62129   1.63282   1.64916   1.66030   1.67543
 Alpha virt. eigenvalues --    1.68614   1.69172   1.70472   1.71322   1.74148
 Alpha virt. eigenvalues --    1.76826   1.77079   1.79013   1.79378   1.81039
 Alpha virt. eigenvalues --    1.82960   1.85919   1.88150   1.89702   1.90608
 Alpha virt. eigenvalues --    1.91366   1.94486   1.95004   1.97395   2.00538
 Alpha virt. eigenvalues --    2.00828   2.05450   2.07034   2.08348   2.08473
 Alpha virt. eigenvalues --    2.10897   2.13936   2.18609   2.20233   2.24593
 Alpha virt. eigenvalues --    2.27647   2.30685   2.37027   2.37402   2.38002
 Alpha virt. eigenvalues --    2.38279   2.39369   2.39931   2.40470   2.42150
 Alpha virt. eigenvalues --    2.42561   2.43755   2.45057   2.51019   2.54995
 Alpha virt. eigenvalues --    2.61160   2.64124   2.68330   2.71900   2.73263
 Alpha virt. eigenvalues --    2.76309   2.78780   2.81841   2.94680   2.99730
 Alpha virt. eigenvalues --    3.01878   3.09943   3.11451   3.15939   3.17850
 Alpha virt. eigenvalues --    3.24294   3.27129   3.35294   3.59305   3.74887
          Condensed to atoms (all electrons):
 Mulliken charges:
               1
     1  C    0.619968
     2  C   -0.109007
     3  S    0.374858
     4  S    0.296729
     5  C    1.040353
     6  C    1.130702
     7  C    0.787106
     8  N   -1.083571
     9  S    0.557014
    10  C   -1.129203
    11  N   -0.167778
    12  C   -1.100472
    13  N   -0.180540
    14  C   -0.853200
    15  N   -0.182959
 Sum of Mulliken charges =  -0.00000
 Mulliken charges with hydrogens summed into heavy atoms:
               1
     1  C    0.619968
     2  C   -0.109007
     3  S    0.374858
     4  S    0.296729
     5  C    1.040353
     6  C    1.130702
     7  C    0.787106
     8  N   -1.083571
     9  S    0.557014
    10  C   -1.129203
    11  N   -0.167778
    12  C   -1.100472
    13  N   -0.180540
    14  C   -0.853200
    15  N   -0.182959
 Electronic spatial extent (au):  <R**2>=           4013.7192
 Charge=              0.0000 electrons
 Dipole moment (field-independent basis, Debye):
    X=             -2.7016    Y=             -3.8261    Z=              0.1156  Tot=              4.6852

 Test job not archived.
 1\1\GINC-CHIMERA-NODE50\SP\RM05\Gen\C8N4S3\CONNORNM\19-Jan-2019\0\\#T 
 M05/Gen test Massage SCF=(fermi,maxcyc=60)\\M05 opt\\0,1\C,0,-0.627712
 88,-0.45572205,-0.66287469\C,0,-0.33239744,-1.24746645,0.48244459\S,0,
 -0.69415535,1.30023231,-0.68982511\S,0,0.05180662,-0.5812915,2.0771817
 2\C,0,0.54269729,1.68791602,0.5201414\C,0,0.83523802,0.9404016,1.61708
 541\C,0,-0.92403368,-1.27770036,-1.73144798\N,0,-0.38340046,-2.5498599
 5,0.34449571\S,0,-0.83497049,-2.92913205,-1.21215264\C,0,1.20627488,2.
 92327051,0.26587041\N,0,1.70199563,3.94782893,0.02978987\C,0,1.8193870
 7,1.36761064,2.55670502\N,0,2.59179205,1.69076257,3.36286226\C,0,-1.28
 288436,-0.90944247,-3.05083449\N,0,-1.58785247,-0.62533233,-4.13590214
 \\Version=AS64L-G09RevD.01\HF=-1724.7614939\RMSD=5.163e-09\Dipole=-1.0
 628981,-1.5053095,0.0454669\Quadrupole=3.417259,1.9139337,-5.3311927,-
 6.3395694,-8.7599581,-0.0043307\PG=C01 [X(C8N4S3)]\\@


 ONE THORN OF EXPERIENCE IS WORTH A WHOLE WILDERNESS OF
 WARNING....  LOWELL - AMONG MY BOOKS
 Job cpu time:       0 days  1 hours 39 minutes 20.2 seconds.
 File lengths (MBytes):  RWF=     58 Int=      0 D2E=      0 Chk=      6 Scr=      1
 Normal termination of Gaussian 09 at Sat Jan 19 11:14:47 2019.
