 Entering Gaussian System, Link 0=/data/szalewicgrp/connornm/opt/Gaussian/g09-M05-par/g09/g09
 AtFile(1): blind-aug.gbs
 Initial command:
 /data/szalewicgrp/connornm/opt/Gaussian/g09-M05-par/g09/l1.exe "/scratch/local/Gau-33238.inp" -scrdir="/scratch/local/"
 Entering Link 1 = /data/szalewicgrp/connornm/opt/Gaussian/g09-M05-par/g09/l1.exe PID=     33239.
  
 Copyright (c) 1988,1990,1992,1993,1995,1998,2003,2009,2013,
            Gaussian, Inc.  All Rights Reserved.
  
 This is part of the Gaussian(R) 09 program.  It is based on
 the Gaussian(R) 03 system (copyright 2003, Gaussian, Inc.),
 the Gaussian(R) 98 system (copyright 1998, Gaussian, Inc.),
 the Gaussian(R) 94 system (copyright 1995, Gaussian, Inc.),
 the Gaussian 92(TM) system (copyright 1992, Gaussian, Inc.),
 the Gaussian 90(TM) system (copyright 1990, Gaussian, Inc.),
 the Gaussian 88(TM) system (copyright 1988, Gaussian, Inc.),
 the Gaussian 86(TM) system (copyright 1986, Carnegie Mellon
 University), and the Gaussian 82(TM) system (copyright 1983,
 Carnegie Mellon University). Gaussian is a federally registered
 trademark of Gaussian, Inc.
  
 This software contains proprietary and confidential information,
 including trade secrets, belonging to Gaussian, Inc.
  
 This software is provided under written license and may be
 used, copied, transmitted, or stored only in accord with that
 written license.
  
 The following legend is applicable only to US Government
 contracts under FAR:
  
                    RESTRICTED RIGHTS LEGEND
  
 Use, reproduction and disclosure by the US Government is
 subject to restrictions as set forth in subparagraphs (a)
 and (c) of the Commercial Computer Software - Restricted
 Rights clause in FAR 52.227-19.
  
 Gaussian, Inc.
 340 Quinnipiac St., Bldg. 40, Wallingford CT 06492
  
  
 ---------------------------------------------------------------
 Warning -- This program may not be used in any manner that
 competes with the business of Gaussian, Inc. or will provide
 assistance to any competitor of Gaussian, Inc.  The licensee
 of this program is prohibited from giving any competitor of
 Gaussian, Inc. access to this program.  By using this program,
 the user acknowledges that Gaussian, Inc. is engaged in the
 business of creating and licensing software in the field of
 computational chemistry and represents and warrants to the
 licensee that it is not a competitor of Gaussian, Inc. and that
 it will not use this program in any manner prohibited above.
 ---------------------------------------------------------------
  

 Cite this work as:
 Gaussian 09, Revision D.01,
 M. J. Frisch, G. W. Trucks, H. B. Schlegel, G. E. Scuseria, 
 M. A. Robb, J. R. Cheeseman, G. Scalmani, V. Barone, B. Mennucci, 
 G. A. Petersson, H. Nakatsuji, M. Caricato, X. Li, H. P. Hratchian, 
 A. F. Izmaylov, J. Bloino, G. Zheng, J. L. Sonnenberg, M. Hada, 
 M. Ehara, K. Toyota, R. Fukuda, J. Hasegawa, M. Ishida, T. Nakajima, 
 Y. Honda, O. Kitao, H. Nakai, T. Vreven, J. A. Montgomery, Jr., 
 J. E. Peralta, F. Ogliaro, M. Bearpark, J. J. Heyd, E. Brothers, 
 K. N. Kudin, V. N. Staroverov, T. Keith, R. Kobayashi, J. Normand, 
 K. Raghavachari, A. Rendell, J. C. Burant, S. S. Iyengar, J. Tomasi, 
 M. Cossi, N. Rega, J. M. Millam, M. Klene, J. E. Knox, J. B. Cross, 
 V. Bakken, C. Adamo, J. Jaramillo, R. Gomperts, R. E. Stratmann, 
 O. Yazyev, A. J. Austin, R. Cammi, C. Pomelli, J. W. Ochterski, 
 R. L. Martin, K. Morokuma, V. G. Zakrzewski, G. A. Voth, 
 P. Salvador, J. J. Dannenberg, S. Dapprich, A. D. Daniels, 
 O. Farkas, J. B. Foresman, J. V. Ortiz, J. Cioslowski, 
 and D. J. Fox, Gaussian, Inc., Wallingford CT, 2013.
 
 ******************************************
 Gaussian 09:  AS64L-G09RevD.01 24-Apr-2013
                19-Jan-2019 
 ******************************************
 %Chk=BLIND02415_mB
 %Mem=1GB
 %NProcShared=48
 Will use up to   48 processors via shared memory.
 ---------------------------------------------
 #T M05/Gen test Massage SCF=(fermi,maxcyc=60)
 ---------------------------------------------
 -------
 M05 opt
 -------
 Symbolic Z-matrix:
 Charge =  0 Multiplicity = 1
 6                     0.36179   0.85344   7.12373 
 6                     0.38801   0.86936   8.54671 
 16                    0.5248   -0.58291   6.1243 
 16                    0.55924  -0.57768   9.55238 
 6                    -0.24938  -1.79027   7.16692 
 6                    -0.23281  -1.78615   8.52609 
 6                     0.26076   2.14486   6.64693 
 7                     0.31325   2.03665   9.13807 
 16                    0.23544   3.23991   7.99045 
 6                    -0.88155  -2.83774   6.436 
 7                    -1.36184  -3.68173   5.79709 
 6                    -0.84866  -2.83415   9.27198 
 7                    -1.31146  -3.68131   9.91934 
 6                     0.2147    2.5842    5.30156 
 7                     0.18501   2.96331   4.20316 
 
                    Distance matrix (angstroms):
                    1          2          3          4          5
     1  C    0.000000
     2  C    1.423315   0.000000
     3  S    1.757418   2.827694   0.000000
     4  S    2.825849   1.770477   3.428253   0.000000
     5  C    2.713774   3.063280   1.773167   2.795470   0.000000
     6  C    3.047557   2.727187   2.791121   1.772288   1.359281
     7  C    1.380327   2.291783   2.789903   3.992857   4.001979
     8  N    2.336642   1.310672   3.998700   2.658358   4.341342
     9  S    2.542129   2.439721   4.263822   4.137445   5.120151
    10  C    3.955208   4.450782   2.675676   4.110426   1.425163
    11  N    5.029770   5.597745   3.642685   5.237162   2.586817
    12  C    4.436049   3.971317   4.106384   2.674416   2.424897
    13  N    5.583831   5.047859   5.232040   3.642352   3.504263
    14  C    2.517432   3.674472   3.286888   5.309014   4.778168
    15  N    3.607292   4.826214   4.047461   6.425950   5.618639
                    6          7          8          9         10
     6  C    0.000000
     7  C    4.384939   0.000000
     8  N    3.909794   2.494036   0.000000
     9  S    5.076167   1.733444   1.664607   0.000000
    10  C    2.428007   5.116215   5.699860   6.371958   0.000000
    11  N    3.509330   6.107712   6.831389   7.434461   1.162408
    12  C    1.426163   5.736923   5.009263   6.301738   2.836178
    13  N    2.587713   6.864751   5.995430   7.349618   3.609722
    14  C    5.449573   1.416040   3.876636   2.767765   5.646781
    15  N    6.435818   2.578302   5.022796   3.797715   6.306769
                   11         12         13         14         15
    11  N    0.000000
    12  C    3.613393   0.000000
    13  N    4.122555   1.162293   0.000000
    14  C    6.480188   6.800997   7.931563   0.000000
    15  N    7.006418   7.769948   8.891861   1.162367   0.000000
 Symmetry turned off by external request.
 Framework group  C1[X(C8N4S3)]
 Deg. of freedom    39
 Rotational constants (GHZ):      0.7722167      0.3388923      0.2463240
   357 basis functions,   759 primitive gaussians,   387 cartesian basis functions
    62 alpha electrons       62 beta electrons
       nuclear repulsion energy      1166.1400400351 Hartrees.
 IMHF & INEx in M05                  599485                  400514
 NAtoms=   15 NActive=   15 NUniq=   15 SFac= 1.00D+00 NAtFMM=   60 NAOKFM=F Big=F
 PrsmSu:  requested number of processors reduced to:  34 ShMem   1 Linda.
 ExpMin= 3.99D-02 ExpMax= 1.11D+05 ExpMxC= 1.07D+03 IAcc=3 IRadAn=         5 AccDes= 0.00D+00
 Harris functional with IExCor= 1009 and IRadAn=       5 diagonalized for initial guess.
 HarFok:  IExCor= 1009 AccDes= 0.00D+00 IRadAn=         5 IDoV= 1 UseB2=F ITyADJ=14
 ICtDFT=  3500011 ScaDFX=  1.000000  1.000000  1.000000  1.000000
 FoFCou: FMM=F IPFlag=           0 FMFlag=      100000 FMFlg1=           0
         NFxFlg=           0 DoJE=T BraDBF=F KetDBF=T FulRan=T
         wScrn=  0.000000 ICntrl=     500 IOpCl=  0 I1Cent=   200000004 NGrid=           0
         NMat0=    1 NMatS0=      1 NMatT0=    0 NMatD0=    1 NMtDS0=    0 NMtDT0=    0
 Symmetry not used in FoFCou.
 SCF Done:  E(RM05) =  -1724.76151192     A.U. after   17 cycles
            NFock= 17  Conv=0.51D-08     -V/T= 2.0061

 **********************************************************************

            Population analysis using the SCF density.

 **********************************************************************

 Alpha  occ. eigenvalues --  -90.56429 -90.53635 -90.53181 -15.08622 -15.05416
 Alpha  occ. eigenvalues --  -15.04970 -15.04934 -10.89945 -10.89827 -10.89736
 Alpha  occ. eigenvalues --  -10.88752 -10.87413 -10.84946 -10.84332 -10.84311
 Alpha  occ. eigenvalues --   -8.57525  -8.55035  -8.54609  -6.40062  -6.39712
 Alpha  occ. eigenvalues --   -6.39400  -6.37596  -6.37282  -6.37162  -6.36853
 Alpha  occ. eigenvalues --   -6.36821  -6.36392  -1.20533  -1.12896  -1.12138
 Alpha  occ. eigenvalues --   -1.11338  -1.07644  -1.03801  -0.98824  -0.97396
 Alpha  occ. eigenvalues --   -0.88003  -0.84555  -0.82236  -0.73687  -0.71296
 Alpha  occ. eigenvalues --   -0.67838  -0.64612  -0.59530  -0.57258  -0.55386
 Alpha  occ. eigenvalues --   -0.53385  -0.52647  -0.52243  -0.51891  -0.50884
 Alpha  occ. eigenvalues --   -0.50387  -0.49356  -0.48216  -0.46805  -0.46075
 Alpha  occ. eigenvalues --   -0.45933  -0.45296  -0.43720  -0.43113  -0.39488
 Alpha  occ. eigenvalues --   -0.37628  -0.33120
 Alpha virt. eigenvalues --   -0.09329  -0.08268  -0.02099  -0.01262  -0.00506
 Alpha virt. eigenvalues --   -0.00361   0.00154   0.01255   0.02017   0.02230
 Alpha virt. eigenvalues --    0.02393   0.02957   0.03187   0.04003   0.04272
 Alpha virt. eigenvalues --    0.04485   0.05428   0.06003   0.06300   0.07064
 Alpha virt. eigenvalues --    0.07269   0.07527   0.07707   0.08291   0.08491
 Alpha virt. eigenvalues --    0.09370   0.10093   0.10388   0.10525   0.10812
 Alpha virt. eigenvalues --    0.11288   0.11394   0.11979   0.12529   0.13230
 Alpha virt. eigenvalues --    0.13486   0.13933   0.14456   0.15073   0.15193
 Alpha virt. eigenvalues --    0.15905   0.16281   0.16680   0.16815   0.17188
 Alpha virt. eigenvalues --    0.17357   0.17847   0.18607   0.19043   0.19560
 Alpha virt. eigenvalues --    0.19865   0.20239   0.20682   0.20930   0.21264
 Alpha virt. eigenvalues --    0.21877   0.22206   0.22580   0.22813   0.23615
 Alpha virt. eigenvalues --    0.23751   0.24115   0.24363   0.24701   0.25258
 Alpha virt. eigenvalues --    0.25690   0.25856   0.26224   0.26625   0.26742
 Alpha virt. eigenvalues --    0.27073   0.28336   0.29195   0.29661   0.30368
 Alpha virt. eigenvalues --    0.30713   0.32417   0.33451   0.34158   0.34713
 Alpha virt. eigenvalues --    0.34952   0.35470   0.36120   0.36939   0.37593
 Alpha virt. eigenvalues --    0.38151   0.39579   0.40728   0.41174   0.42052
 Alpha virt. eigenvalues --    0.42118   0.43488   0.44135   0.45735   0.45978
 Alpha virt. eigenvalues --    0.46965   0.48553   0.49569   0.50240   0.50597
 Alpha virt. eigenvalues --    0.51523   0.51851   0.53525   0.54165   0.54421
 Alpha virt. eigenvalues --    0.54699   0.55467   0.55725   0.55837   0.56447
 Alpha virt. eigenvalues --    0.57773   0.58136   0.58554   0.59218   0.60313
 Alpha virt. eigenvalues --    0.60554   0.61097   0.61582   0.62105   0.62711
 Alpha virt. eigenvalues --    0.63709   0.64711   0.64957   0.66006   0.66559
 Alpha virt. eigenvalues --    0.67688   0.68194   0.68808   0.70104   0.70419
 Alpha virt. eigenvalues --    0.71048   0.72865   0.73472   0.73853   0.75375
 Alpha virt. eigenvalues --    0.75566   0.76456   0.77061   0.77552   0.77844
 Alpha virt. eigenvalues --    0.78244   0.79256   0.79761   0.79878   0.81112
 Alpha virt. eigenvalues --    0.81535   0.82545   0.83280   0.83955   0.84871
 Alpha virt. eigenvalues --    0.85698   0.85939   0.87125   0.87249   0.88401
 Alpha virt. eigenvalues --    0.88458   0.89345   0.89666   0.89829   0.90731
 Alpha virt. eigenvalues --    0.91172   0.91723   0.92830   0.93721   0.94368
 Alpha virt. eigenvalues --    0.95430   0.95566   0.97328   0.98744   0.99315
 Alpha virt. eigenvalues --    0.99846   1.01204   1.02847   1.03578   1.04752
 Alpha virt. eigenvalues --    1.05758   1.06748   1.08037   1.08542   1.09636
 Alpha virt. eigenvalues --    1.10236   1.11403   1.13197   1.13606   1.14405
 Alpha virt. eigenvalues --    1.15319   1.17100   1.18342   1.20283   1.20631
 Alpha virt. eigenvalues --    1.21608   1.22700   1.23934   1.24218   1.26554
 Alpha virt. eigenvalues --    1.27345   1.29758   1.30251   1.32273   1.34123
 Alpha virt. eigenvalues --    1.37312   1.40082   1.40259   1.41567   1.42729
 Alpha virt. eigenvalues --    1.43617   1.45025   1.46463   1.47274   1.49373
 Alpha virt. eigenvalues --    1.49825   1.50474   1.51644   1.51869   1.52335
 Alpha virt. eigenvalues --    1.53715   1.54192   1.55432   1.56138   1.56449
 Alpha virt. eigenvalues --    1.56788   1.58486   1.59730   1.60391   1.60516
 Alpha virt. eigenvalues --    1.62129   1.63283   1.64920   1.66029   1.67546
 Alpha virt. eigenvalues --    1.68610   1.69173   1.70471   1.71324   1.74150
 Alpha virt. eigenvalues --    1.76826   1.77077   1.79012   1.79378   1.81034
 Alpha virt. eigenvalues --    1.82959   1.85915   1.88151   1.89701   1.90606
 Alpha virt. eigenvalues --    1.91370   1.94485   1.95005   1.97397   2.00537
 Alpha virt. eigenvalues --    2.00826   2.05449   2.07034   2.08348   2.08474
 Alpha virt. eigenvalues --    2.10896   2.13936   2.18605   2.20230   2.24593
 Alpha virt. eigenvalues --    2.27650   2.30684   2.37027   2.37403   2.38003
 Alpha virt. eigenvalues --    2.38280   2.39369   2.39930   2.40469   2.42149
 Alpha virt. eigenvalues --    2.42559   2.43756   2.45056   2.51024   2.54996
 Alpha virt. eigenvalues --    2.61162   2.64124   2.68329   2.71898   2.73264
 Alpha virt. eigenvalues --    2.76308   2.78779   2.81841   2.94680   2.99731
 Alpha virt. eigenvalues --    3.01878   3.09944   3.11452   3.15940   3.17848
 Alpha virt. eigenvalues --    3.24291   3.27126   3.35296   3.59308   3.74887
          Condensed to atoms (all electrons):
 Mulliken charges:
               1
     1  C    0.619471
     2  C   -0.109173
     3  S    0.374385
     4  S    0.296478
     5  C    1.040965
     6  C    1.131538
     7  C    0.787463
     8  N   -1.083075
     9  S    0.557355
    10  C   -1.130804
    11  N   -0.167618
    12  C   -1.100536
    13  N   -0.180195
    14  C   -0.853233
    15  N   -0.183020
 Sum of Mulliken charges =  -0.00000
 Mulliken charges with hydrogens summed into heavy atoms:
               1
     1  C    0.619471
     2  C   -0.109173
     3  S    0.374385
     4  S    0.296478
     5  C    1.040965
     6  C    1.131538
     7  C    0.787463
     8  N   -1.083075
     9  S    0.557355
    10  C   -1.130804
    11  N   -0.167618
    12  C   -1.100536
    13  N   -0.180195
    14  C   -0.853233
    15  N   -0.183020
 Electronic spatial extent (au):  <R**2>=          29237.2604
 Charge=             -0.0000 electrons
 Dipole moment (field-independent basis, Debye):
    X=              2.3623    Y=              3.7253    Z=              1.5769  Tot=              4.6845

 Test job not archived.
 1\1\GINC-CHIMERA-NODE29\SP\RM05\Gen\C8N4S3\CONNORNM\19-Jan-2019\0\\#T 
 M05/Gen test Massage SCF=(fermi,maxcyc=60)\\M05 opt\\0,1\C,0,0.3617879
 ,0.85343979,7.12372905\C,0,0.38800529,0.86935724,8.54671392\S,0,0.5248
 0177,-0.58290747,6.12430439\S,0,0.5592368,-0.5776753,9.55238035\C,0,-0
 .24938005,-1.79026583,7.16692148\C,0,-0.23280526,-1.78614988,8.5260949
 \C,0,0.260763,2.14485792,6.64693098\N,0,0.31324941,2.03665089,9.138065
 85\S,0,0.23544173,3.23991252,7.99044905\C,0,-0.8815478,-2.83774023,6.4
 3599674\N,0,-1.36183682,-3.68172628,5.79708907\C,0,-0.84866279,-2.8341
 545,9.27198213\N,0,-1.31145692,-3.6813149,9.91933596\C,0,0.21470385,2.
 58419818,5.30155849\N,0,0.1850108,2.96331216,4.20315655\\Version=AS64L
 -G09RevD.01\HF=-1724.7615119\RMSD=5.116e-09\Dipole=0.9293873,1.4656505
 ,0.6203825\Quadrupole=2.565956,-10.0435148,7.4775588,-7.0862681,13.813
 1661,26.7859054\PG=C01 [X(C8N4S3)]\\@


 THERE'S SMALL CHOICE IN A BOWL OF ROTTEN APPLES.
                     SHAKESPEARE
 Job cpu time:       0 days  1 hours 54 minutes 18.6 seconds.
 File lengths (MBytes):  RWF=     58 Int=      0 D2E=      0 Chk=      6 Scr=      1
 Normal termination of Gaussian 09 at Sat Jan 19 11:06:01 2019.
