 Entering Gaussian System, Link 0=/data/szalewicgrp/connornm/opt/Gaussian/g09-M05-par/g09/g09
 AtFile(1): blind-aug.gbs
 Initial command:
 /data/szalewicgrp/connornm/opt/Gaussian/g09-M05-par/g09/l1.exe "/scratch/local/Gau-31967.inp" -scrdir="/scratch/local/"
 Entering Link 1 = /data/szalewicgrp/connornm/opt/Gaussian/g09-M05-par/g09/l1.exe PID=     31968.
  
 Copyright (c) 1988,1990,1992,1993,1995,1998,2003,2009,2013,
            Gaussian, Inc.  All Rights Reserved.
  
 This is part of the Gaussian(R) 09 program.  It is based on
 the Gaussian(R) 03 system (copyright 2003, Gaussian, Inc.),
 the Gaussian(R) 98 system (copyright 1998, Gaussian, Inc.),
 the Gaussian(R) 94 system (copyright 1995, Gaussian, Inc.),
 the Gaussian 92(TM) system (copyright 1992, Gaussian, Inc.),
 the Gaussian 90(TM) system (copyright 1990, Gaussian, Inc.),
 the Gaussian 88(TM) system (copyright 1988, Gaussian, Inc.),
 the Gaussian 86(TM) system (copyright 1986, Carnegie Mellon
 University), and the Gaussian 82(TM) system (copyright 1983,
 Carnegie Mellon University). Gaussian is a federally registered
 trademark of Gaussian, Inc.
  
 This software contains proprietary and confidential information,
 including trade secrets, belonging to Gaussian, Inc.
  
 This software is provided under written license and may be
 used, copied, transmitted, or stored only in accord with that
 written license.
  
 The following legend is applicable only to US Government
 contracts under FAR:
  
                    RESTRICTED RIGHTS LEGEND
  
 Use, reproduction and disclosure by the US Government is
 subject to restrictions as set forth in subparagraphs (a)
 and (c) of the Commercial Computer Software - Restricted
 Rights clause in FAR 52.227-19.
  
 Gaussian, Inc.
 340 Quinnipiac St., Bldg. 40, Wallingford CT 06492
  
  
 ---------------------------------------------------------------
 Warning -- This program may not be used in any manner that
 competes with the business of Gaussian, Inc. or will provide
 assistance to any competitor of Gaussian, Inc.  The licensee
 of this program is prohibited from giving any competitor of
 Gaussian, Inc. access to this program.  By using this program,
 the user acknowledges that Gaussian, Inc. is engaged in the
 business of creating and licensing software in the field of
 computational chemistry and represents and warrants to the
 licensee that it is not a competitor of Gaussian, Inc. and that
 it will not use this program in any manner prohibited above.
 ---------------------------------------------------------------
  

 Cite this work as:
 Gaussian 09, Revision D.01,
 M. J. Frisch, G. W. Trucks, H. B. Schlegel, G. E. Scuseria, 
 M. A. Robb, J. R. Cheeseman, G. Scalmani, V. Barone, B. Mennucci, 
 G. A. Petersson, H. Nakatsuji, M. Caricato, X. Li, H. P. Hratchian, 
 A. F. Izmaylov, J. Bloino, G. Zheng, J. L. Sonnenberg, M. Hada, 
 M. Ehara, K. Toyota, R. Fukuda, J. Hasegawa, M. Ishida, T. Nakajima, 
 Y. Honda, O. Kitao, H. Nakai, T. Vreven, J. A. Montgomery, Jr., 
 J. E. Peralta, F. Ogliaro, M. Bearpark, J. J. Heyd, E. Brothers, 
 K. N. Kudin, V. N. Staroverov, T. Keith, R. Kobayashi, J. Normand, 
 K. Raghavachari, A. Rendell, J. C. Burant, S. S. Iyengar, J. Tomasi, 
 M. Cossi, N. Rega, J. M. Millam, M. Klene, J. E. Knox, J. B. Cross, 
 V. Bakken, C. Adamo, J. Jaramillo, R. Gomperts, R. E. Stratmann, 
 O. Yazyev, A. J. Austin, R. Cammi, C. Pomelli, J. W. Ochterski, 
 R. L. Martin, K. Morokuma, V. G. Zakrzewski, G. A. Voth, 
 P. Salvador, J. J. Dannenberg, S. Dapprich, A. D. Daniels, 
 O. Farkas, J. B. Foresman, J. V. Ortiz, J. Cioslowski, 
 and D. J. Fox, Gaussian, Inc., Wallingford CT, 2013.
 
 ******************************************
 Gaussian 09:  AS64L-G09RevD.01 24-Apr-2013
                19-Jan-2019 
 ******************************************
 %Chk=BLIND00088_mA
 %Mem=1GB
 %NProcShared=48
 Will use up to   48 processors via shared memory.
 ---------------------------------------------
 #T M05/Gen test Massage SCF=(fermi,maxcyc=60)
 ---------------------------------------------
 -------
 M05 opt
 -------
 Symbolic Z-matrix:
 Charge =  0 Multiplicity = 1
 6                     0.22481  -0.4396   -0.89293 
 6                    -0.56877  -1.25479  -0.03765 
 16                    0.18805   1.31687  -0.93744 
 16                   -1.71206  -0.62148   1.15668 
 6                    -0.16716   1.67474   0.76253 
 6                    -0.92213   0.90471   1.59001 
 6                     0.97492  -1.23928  -1.73147 
 7                    -0.46278  -2.554    -0.17431 
 16                    0.60822  -2.90085  -1.40052 
 6                     0.38868   2.9113    1.20191 
 7                     0.84136   3.93763   1.50673 
 6                    -1.18689   1.30861   2.93191 
 7                    -1.45232   1.61215   4.02202 
 6                     1.88633  -0.8438   -2.74048 
 7                     2.63081  -0.53725  -3.57886 
 
                    Distance matrix (angstroms):
                    1          2          3          4          5
     1  C    0.000000
     2  C    1.423315   0.000000
     3  S    1.757418   2.827694   0.000000
     4  S    2.825849   1.770477   3.428253   0.000000
     5  C    2.713774   3.063280   1.773167   2.795470   0.000000
     6  C    3.047557   2.727187   2.791121   1.772288   1.359281
     7  C    1.380327   2.291783   2.789903   3.992857   4.001979
     8  N    2.336642   1.310672   3.998700   2.658358   4.341342
     9  S    2.542129   2.439721   4.263822   4.137445   5.120151
    10  C    3.955208   4.450782   2.675676   4.110426   1.425163
    11  N    5.029770   5.597745   3.642685   5.237162   2.586817
    12  C    4.436049   3.971317   4.106384   2.674416   2.424897
    13  N    5.583831   5.047859   5.232040   3.642352   3.504263
    14  C    2.517432   3.674472   3.286888   5.309014   4.778168
    15  N    3.607292   4.826214   4.047461   6.425950   5.618639
                    6          7          8          9         10
     6  C    0.000000
     7  C    4.384939   0.000000
     8  N    3.909794   2.494036   0.000000
     9  S    5.076167   1.733444   1.664607   0.000000
    10  C    2.428007   5.116215   5.699860   6.371958   0.000000
    11  N    3.509330   6.107712   6.831389   7.434461   1.162408
    12  C    1.426163   5.736923   5.009263   6.301738   2.836178
    13  N    2.587713   6.864751   5.995430   7.349618   3.609722
    14  C    5.449573   1.416040   3.876636   2.767765   5.646781
    15  N    6.435818   2.578302   5.022796   3.797715   6.306769
                   11         12         13         14         15
    11  N    0.000000
    12  C    3.613393   0.000000
    13  N    4.122555   1.162293   0.000000
    14  C    6.480188   6.800997   7.931563   0.000000
    15  N    7.006418   7.769948   8.891861   1.162367   0.000000
 Symmetry turned off by external request.
 Framework group  C1[X(C8N4S3)]
 Deg. of freedom    39
 Rotational constants (GHZ):      0.7722167      0.3388923      0.2463240
   357 basis functions,   759 primitive gaussians,   387 cartesian basis functions
    62 alpha electrons       62 beta electrons
       nuclear repulsion energy      1166.1400403486 Hartrees.
 IMHF & INEx in M05                  599485                  400514
 NAtoms=   15 NActive=   15 NUniq=   15 SFac= 1.00D+00 NAtFMM=   60 NAOKFM=F Big=F
 PrsmSu:  requested number of processors reduced to:  34 ShMem   1 Linda.
 ExpMin= 3.99D-02 ExpMax= 1.11D+05 ExpMxC= 1.07D+03 IAcc=3 IRadAn=         5 AccDes= 0.00D+00
 Harris functional with IExCor= 1009 and IRadAn=       5 diagonalized for initial guess.
 HarFok:  IExCor= 1009 AccDes= 0.00D+00 IRadAn=         5 IDoV= 1 UseB2=F ITyADJ=14
 ICtDFT=  3500011 ScaDFX=  1.000000  1.000000  1.000000  1.000000
 FoFCou: FMM=F IPFlag=           0 FMFlag=      100000 FMFlg1=           0
         NFxFlg=           0 DoJE=T BraDBF=F KetDBF=T FulRan=T
         wScrn=  0.000000 ICntrl=     500 IOpCl=  0 I1Cent=   200000004 NGrid=           0
         NMat0=    1 NMatS0=      1 NMatT0=    0 NMatD0=    1 NMtDS0=    0 NMtDT0=    0
 Symmetry not used in FoFCou.
 SCF Done:  E(RM05) =  -1724.76148552     A.U. after   17 cycles
            NFock= 17  Conv=0.51D-08     -V/T= 2.0061

 **********************************************************************

            Population analysis using the SCF density.

 **********************************************************************

 Alpha  occ. eigenvalues --  -90.56429 -90.53636 -90.53183 -15.08621 -15.05416
 Alpha  occ. eigenvalues --  -15.04969 -15.04934 -10.89945 -10.89827 -10.89736
 Alpha  occ. eigenvalues --  -10.88752 -10.87413 -10.84946 -10.84332 -10.84311
 Alpha  occ. eigenvalues --   -8.57525  -8.55035  -8.54610  -6.40062  -6.39712
 Alpha  occ. eigenvalues --   -6.39400  -6.37597  -6.37282  -6.37164  -6.36854
 Alpha  occ. eigenvalues --   -6.36822  -6.36393  -1.20533  -1.12895  -1.12139
 Alpha  occ. eigenvalues --   -1.11337  -1.07643  -1.03801  -0.98824  -0.97396
 Alpha  occ. eigenvalues --   -0.88003  -0.84555  -0.82236  -0.73687  -0.71296
 Alpha  occ. eigenvalues --   -0.67838  -0.64612  -0.59530  -0.57258  -0.55386
 Alpha  occ. eigenvalues --   -0.53385  -0.52647  -0.52243  -0.51890  -0.50883
 Alpha  occ. eigenvalues --   -0.50387  -0.49356  -0.48215  -0.46805  -0.46074
 Alpha  occ. eigenvalues --   -0.45933  -0.45296  -0.43720  -0.43113  -0.39488
 Alpha  occ. eigenvalues --   -0.37627  -0.33120
 Alpha virt. eigenvalues --   -0.09329  -0.08268  -0.02099  -0.01263  -0.00503
 Alpha virt. eigenvalues --   -0.00362   0.00154   0.01255   0.02022   0.02229
 Alpha virt. eigenvalues --    0.02394   0.02956   0.03189   0.04003   0.04277
 Alpha virt. eigenvalues --    0.04485   0.05429   0.06004   0.06302   0.07067
 Alpha virt. eigenvalues --    0.07275   0.07527   0.07708   0.08291   0.08494
 Alpha virt. eigenvalues --    0.09376   0.10092   0.10391   0.10524   0.10809
 Alpha virt. eigenvalues --    0.11288   0.11392   0.11979   0.12528   0.13230
 Alpha virt. eigenvalues --    0.13484   0.13937   0.14452   0.15074   0.15194
 Alpha virt. eigenvalues --    0.15902   0.16276   0.16678   0.16812   0.17192
 Alpha virt. eigenvalues --    0.17362   0.17847   0.18610   0.19058   0.19567
 Alpha virt. eigenvalues --    0.19857   0.20244   0.20681   0.20935   0.21272
 Alpha virt. eigenvalues --    0.21882   0.22210   0.22582   0.22819   0.23611
 Alpha virt. eigenvalues --    0.23749   0.24113   0.24369   0.24707   0.25259
 Alpha virt. eigenvalues --    0.25691   0.25856   0.26223   0.26621   0.26748
 Alpha virt. eigenvalues --    0.27074   0.28336   0.29193   0.29659   0.30370
 Alpha virt. eigenvalues --    0.30712   0.32418   0.33455   0.34156   0.34714
 Alpha virt. eigenvalues --    0.34952   0.35472   0.36120   0.36936   0.37593
 Alpha virt. eigenvalues --    0.38150   0.39577   0.40726   0.41169   0.42050
 Alpha virt. eigenvalues --    0.42114   0.43486   0.44136   0.45733   0.45980
 Alpha virt. eigenvalues --    0.46960   0.48554   0.49575   0.50241   0.50601
 Alpha virt. eigenvalues --    0.51527   0.51853   0.53528   0.54166   0.54418
 Alpha virt. eigenvalues --    0.54701   0.55468   0.55731   0.55838   0.56449
 Alpha virt. eigenvalues --    0.57771   0.58140   0.58554   0.59214   0.60315
 Alpha virt. eigenvalues --    0.60550   0.61102   0.61585   0.62104   0.62707
 Alpha virt. eigenvalues --    0.63718   0.64714   0.64954   0.66006   0.66557
 Alpha virt. eigenvalues --    0.67687   0.68193   0.68808   0.70108   0.70414
 Alpha virt. eigenvalues --    0.71047   0.72863   0.73468   0.73855   0.75373
 Alpha virt. eigenvalues --    0.75564   0.76459   0.77062   0.77549   0.77846
 Alpha virt. eigenvalues --    0.78244   0.79254   0.79759   0.79880   0.81108
 Alpha virt. eigenvalues --    0.81535   0.82547   0.83281   0.83957   0.84871
 Alpha virt. eigenvalues --    0.85698   0.85940   0.87124   0.87248   0.88403
 Alpha virt. eigenvalues --    0.88458   0.89344   0.89665   0.89830   0.90731
 Alpha virt. eigenvalues --    0.91171   0.91722   0.92828   0.93721   0.94365
 Alpha virt. eigenvalues --    0.95431   0.95564   0.97325   0.98744   0.99313
 Alpha virt. eigenvalues --    0.99848   1.01205   1.02849   1.03575   1.04750
 Alpha virt. eigenvalues --    1.05757   1.06744   1.08040   1.08543   1.09635
 Alpha virt. eigenvalues --    1.10235   1.11401   1.13198   1.13608   1.14404
 Alpha virt. eigenvalues --    1.15323   1.17104   1.18344   1.20284   1.20632
 Alpha virt. eigenvalues --    1.21610   1.22701   1.23935   1.24221   1.26555
 Alpha virt. eigenvalues --    1.27346   1.29756   1.30250   1.32272   1.34126
 Alpha virt. eigenvalues --    1.37314   1.40083   1.40260   1.41567   1.42729
 Alpha virt. eigenvalues --    1.43616   1.45024   1.46464   1.47272   1.49371
 Alpha virt. eigenvalues --    1.49822   1.50475   1.51641   1.51869   1.52332
 Alpha virt. eigenvalues --    1.53715   1.54194   1.55430   1.56137   1.56450
 Alpha virt. eigenvalues --    1.56790   1.58485   1.59725   1.60392   1.60514
 Alpha virt. eigenvalues --    1.62131   1.63280   1.64919   1.66029   1.67548
 Alpha virt. eigenvalues --    1.68612   1.69176   1.70470   1.71324   1.74151
 Alpha virt. eigenvalues --    1.76827   1.77076   1.79016   1.79376   1.81041
 Alpha virt. eigenvalues --    1.82959   1.85920   1.88149   1.89702   1.90608
 Alpha virt. eigenvalues --    1.91370   1.94486   1.95006   1.97394   2.00540
 Alpha virt. eigenvalues --    2.00826   2.05448   2.07036   2.08349   2.08474
 Alpha virt. eigenvalues --    2.10897   2.13938   2.18603   2.20233   2.24594
 Alpha virt. eigenvalues --    2.27644   2.30687   2.37026   2.37402   2.38002
 Alpha virt. eigenvalues --    2.38280   2.39370   2.39930   2.40471   2.42149
 Alpha virt. eigenvalues --    2.42559   2.43755   2.45057   2.51016   2.54997
 Alpha virt. eigenvalues --    2.61157   2.64126   2.68329   2.71898   2.73264
 Alpha virt. eigenvalues --    2.76309   2.78780   2.81840   2.94680   2.99730
 Alpha virt. eigenvalues --    3.01878   3.09941   3.11450   3.15940   3.17850
 Alpha virt. eigenvalues --    3.24293   3.27129   3.35296   3.59308   3.74891
          Condensed to atoms (all electrons):
 Mulliken charges:
               1
     1  C    0.619993
     2  C   -0.110481
     3  S    0.374223
     4  S    0.296739
     5  C    1.039968
     6  C    1.130786
     7  C    0.787201
     8  N   -1.083068
     9  S    0.557501
    10  C   -1.129569
    11  N   -0.167986
    12  C   -1.099115
    13  N   -0.180477
    14  C   -0.852799
    15  N   -0.182916
 Sum of Mulliken charges =  -0.00000
 Mulliken charges with hydrogens summed into heavy atoms:
               1
     1  C    0.619993
     2  C   -0.110481
     3  S    0.374223
     4  S    0.296739
     5  C    1.039968
     6  C    1.130786
     7  C    0.787201
     8  N   -1.083068
     9  S    0.557501
    10  C   -1.129569
    11  N   -0.167986
    12  C   -1.099115
    13  N   -0.180477
    14  C   -0.852799
    15  N   -0.182916
 Electronic spatial extent (au):  <R**2>=           4013.7188
 Charge=             -0.0000 electrons
 Dipole moment (field-independent basis, Debye):
    X=             -1.5059    Y=             -3.8136    Z=             -2.2673  Tot=              4.6853

 Test job not archived.
 1\1\GINC-CHIMERA-NODE23\SP\RM05\Gen\C8N4S3\CONNORNM\19-Jan-2019\0\\#T 
 M05/Gen test Massage SCF=(fermi,maxcyc=60)\\M05 opt\\0,1\C,0,0.2248110
 5,-0.43959529,-0.8929305\C,0,-0.56877239,-1.25478848,-0.03764574\S,0,0
 .18804649,1.31687384,-0.9374413\S,0,-1.71205538,-0.62147563,1.15667715
 \C,0,-0.16715847,1.6747362,0.76252518\C,0,-0.92212878,0.90471084,1.590
 0062\C,0,0.97491751,-1.23927711,-1.73147239\N,0,-0.46277831,-2.5539990
 4,-0.17431039\S,0,0.6082176,-2.90085024,-1.40051546\C,0,0.38867569,2.9
 112972,1.20190534\N,0,0.84135882,3.93762567,1.50673462\C,0,-1.18688558
 ,1.30861361,2.93191094\N,0,-1.4523241,1.61215214,4.02201776\C,0,1.8863
 2893,-0.8438014,-2.74048013\N,0,2.63080829,-0.53725233,-3.57885598\\Ve
 rsion=AS64L-G09RevD.01\HF=-1724.7614855\RMSD=5.146e-09\Dipole=-0.59245
 77,-1.5003878,-0.8920084\Quadrupole=5.2786551,1.9750282,-7.2536834,-3.
 4895636,7.6444837,-5.0998804\PG=C01 [X(C8N4S3)]\\@


 NO MATTER HOW THIN YOU SLICE IT, IT'S STILL BALONEY

                                   -- ALFRED E. SMITH
 Job cpu time:       0 days  1 hours 36 minutes 38.4 seconds.
 File lengths (MBytes):  RWF=     58 Int=      0 D2E=      0 Chk=      6 Scr=      1
 Normal termination of Gaussian 09 at Sat Jan 19 11:00:03 2019.
