 Entering Gaussian System, Link 0=/data/szalewicgrp/connornm/opt/Gaussian/g09-M05-par/g09/g09
 AtFile(1): blind-aug.gbs
 Initial command:
 /data/szalewicgrp/connornm/opt/Gaussian/g09-M05-par/g09/l1.exe "/scratch/local/Gau-9520.inp" -scrdir="/scratch/local/"
 Entering Link 1 = /data/szalewicgrp/connornm/opt/Gaussian/g09-M05-par/g09/l1.exe PID=      9521.
  
 Copyright (c) 1988,1990,1992,1993,1995,1998,2003,2009,2013,
            Gaussian, Inc.  All Rights Reserved.
  
 This is part of the Gaussian(R) 09 program.  It is based on
 the Gaussian(R) 03 system (copyright 2003, Gaussian, Inc.),
 the Gaussian(R) 98 system (copyright 1998, Gaussian, Inc.),
 the Gaussian(R) 94 system (copyright 1995, Gaussian, Inc.),
 the Gaussian 92(TM) system (copyright 1992, Gaussian, Inc.),
 the Gaussian 90(TM) system (copyright 1990, Gaussian, Inc.),
 the Gaussian 88(TM) system (copyright 1988, Gaussian, Inc.),
 the Gaussian 86(TM) system (copyright 1986, Carnegie Mellon
 University), and the Gaussian 82(TM) system (copyright 1983,
 Carnegie Mellon University). Gaussian is a federally registered
 trademark of Gaussian, Inc.
  
 This software contains proprietary and confidential information,
 including trade secrets, belonging to Gaussian, Inc.
  
 This software is provided under written license and may be
 used, copied, transmitted, or stored only in accord with that
 written license.
  
 The following legend is applicable only to US Government
 contracts under FAR:
  
                    RESTRICTED RIGHTS LEGEND
  
 Use, reproduction and disclosure by the US Government is
 subject to restrictions as set forth in subparagraphs (a)
 and (c) of the Commercial Computer Software - Restricted
 Rights clause in FAR 52.227-19.
  
 Gaussian, Inc.
 340 Quinnipiac St., Bldg. 40, Wallingford CT 06492
  
  
 ---------------------------------------------------------------
 Warning -- This program may not be used in any manner that
 competes with the business of Gaussian, Inc. or will provide
 assistance to any competitor of Gaussian, Inc.  The licensee
 of this program is prohibited from giving any competitor of
 Gaussian, Inc. access to this program.  By using this program,
 the user acknowledges that Gaussian, Inc. is engaged in the
 business of creating and licensing software in the field of
 computational chemistry and represents and warrants to the
 licensee that it is not a competitor of Gaussian, Inc. and that
 it will not use this program in any manner prohibited above.
 ---------------------------------------------------------------
  

 Cite this work as:
 Gaussian 09, Revision D.01,
 M. J. Frisch, G. W. Trucks, H. B. Schlegel, G. E. Scuseria, 
 M. A. Robb, J. R. Cheeseman, G. Scalmani, V. Barone, B. Mennucci, 
 G. A. Petersson, H. Nakatsuji, M. Caricato, X. Li, H. P. Hratchian, 
 A. F. Izmaylov, J. Bloino, G. Zheng, J. L. Sonnenberg, M. Hada, 
 M. Ehara, K. Toyota, R. Fukuda, J. Hasegawa, M. Ishida, T. Nakajima, 
 Y. Honda, O. Kitao, H. Nakai, T. Vreven, J. A. Montgomery, Jr., 
 J. E. Peralta, F. Ogliaro, M. Bearpark, J. J. Heyd, E. Brothers, 
 K. N. Kudin, V. N. Staroverov, T. Keith, R. Kobayashi, J. Normand, 
 K. Raghavachari, A. Rendell, J. C. Burant, S. S. Iyengar, J. Tomasi, 
 M. Cossi, N. Rega, J. M. Millam, M. Klene, J. E. Knox, J. B. Cross, 
 V. Bakken, C. Adamo, J. Jaramillo, R. Gomperts, R. E. Stratmann, 
 O. Yazyev, A. J. Austin, R. Cammi, C. Pomelli, J. W. Ochterski, 
 R. L. Martin, K. Morokuma, V. G. Zakrzewski, G. A. Voth, 
 P. Salvador, J. J. Dannenberg, S. Dapprich, A. D. Daniels, 
 O. Farkas, J. B. Foresman, J. V. Ortiz, J. Cioslowski, 
 and D. J. Fox, Gaussian, Inc., Wallingford CT, 2013.
 
 ******************************************
 Gaussian 09:  AS64L-G09RevD.01 24-Apr-2013
                19-Jan-2019 
 ******************************************
 %Chk=BLIND02370_mA
 %Mem=1GB
 %NProcShared=48
 Will use up to   48 processors via shared memory.
 ---------------------------------------------
 #T M05/Gen test Massage SCF=(fermi,maxcyc=60)
 ---------------------------------------------
 -------
 M05 opt
 -------
 Symbolic Z-matrix:
 Charge =  0 Multiplicity = 1
 6                     0.15625   0.86359  -0.52048 
 6                    -0.40218  -0.18431  -1.30526 
 16                    1.23136   0.63821   0.85133 
 16                   -0.1256   -1.90659  -1.0022 
 6                     0.61377  -0.89372   1.49622 
 6                     0.07744  -1.90151   0.75842 
 6                    -0.21714   2.085    -1.04399 
 7                    -1.13852   0.15935  -2.33363 
 16                   -1.18887   1.8188   -2.45456 
 6                     0.77114  -1.01048   2.90785 
 7                     0.9424   -1.06921   4.05607 
 6                    -0.34749  -3.11651   1.37254 
 7                    -0.67965  -4.1338    1.82611 
 6                     0.12366   3.38002  -0.58363 
 7                     0.40089   4.45045  -0.22528 
 
                    Distance matrix (angstroms):
                    1          2          3          4          5
     1  C    0.000000
     2  C    1.423315   0.000000
     3  S    1.757418   2.827694   0.000000
     4  S    2.825849   1.770477   3.428253   0.000000
     5  C    2.713774   3.063280   1.773167   2.795470   0.000000
     6  C    3.047557   2.727187   2.791121   1.772288   1.359281
     7  C    1.380327   2.291783   2.789903   3.992857   4.001979
     8  N    2.336642   1.310672   3.998700   2.658358   4.341342
     9  S    2.542129   2.439721   4.263822   4.137445   5.120151
    10  C    3.955208   4.450782   2.675676   4.110426   1.425163
    11  N    5.029770   5.597745   3.642685   5.237162   2.586817
    12  C    4.436049   3.971317   4.106384   2.674416   2.424897
    13  N    5.583831   5.047859   5.232040   3.642352   3.504263
    14  C    2.517432   3.674472   3.286888   5.309014   4.778168
    15  N    3.607292   4.826214   4.047461   6.425950   5.618639
                    6          7          8          9         10
     6  C    0.000000
     7  C    4.384939   0.000000
     8  N    3.909794   2.494036   0.000000
     9  S    5.076167   1.733444   1.664607   0.000000
    10  C    2.428007   5.116215   5.699860   6.371958   0.000000
    11  N    3.509330   6.107712   6.831389   7.434461   1.162408
    12  C    1.426163   5.736923   5.009263   6.301738   2.836178
    13  N    2.587713   6.864751   5.995430   7.349618   3.609722
    14  C    5.449573   1.416040   3.876636   2.767765   5.646781
    15  N    6.435818   2.578302   5.022796   3.797715   6.306769
                   11         12         13         14         15
    11  N    0.000000
    12  C    3.613393   0.000000
    13  N    4.122555   1.162293   0.000000
    14  C    6.480188   6.800997   7.931563   0.000000
    15  N    7.006418   7.769948   8.891861   1.162367   0.000000
 Symmetry turned off by external request.
 Framework group  C1[X(C8N4S3)]
 Deg. of freedom    39
 Rotational constants (GHZ):      0.7722167      0.3388923      0.2463240
   357 basis functions,   759 primitive gaussians,   387 cartesian basis functions
    62 alpha electrons       62 beta electrons
       nuclear repulsion energy      1166.1400402951 Hartrees.
 IMHF & INEx in M05                  599485                  400514
 NAtoms=   15 NActive=   15 NUniq=   15 SFac= 1.00D+00 NAtFMM=   60 NAOKFM=F Big=F
 PrsmSu:  requested number of processors reduced to:  34 ShMem   1 Linda.
 ExpMin= 3.99D-02 ExpMax= 1.11D+05 ExpMxC= 1.07D+03 IAcc=3 IRadAn=         5 AccDes= 0.00D+00
 Harris functional with IExCor= 1009 and IRadAn=       5 diagonalized for initial guess.
 HarFok:  IExCor= 1009 AccDes= 0.00D+00 IRadAn=         5 IDoV= 1 UseB2=F ITyADJ=14
 ICtDFT=  3500011 ScaDFX=  1.000000  1.000000  1.000000  1.000000
 FoFCou: FMM=F IPFlag=           0 FMFlag=      100000 FMFlg1=           0
         NFxFlg=           0 DoJE=T BraDBF=F KetDBF=T FulRan=T
         wScrn=  0.000000 ICntrl=     500 IOpCl=  0 I1Cent=   200000004 NGrid=           0
         NMat0=    1 NMatS0=      1 NMatT0=    0 NMatD0=    1 NMtDS0=    0 NMtDT0=    0
 Symmetry not used in FoFCou.
 SCF Done:  E(RM05) =  -1724.76148006     A.U. after   17 cycles
            NFock= 17  Conv=0.51D-08     -V/T= 2.0061

 **********************************************************************

            Population analysis using the SCF density.

 **********************************************************************

 Alpha  occ. eigenvalues --  -90.56428 -90.53635 -90.53182 -15.08622 -15.05416
 Alpha  occ. eigenvalues --  -15.04969 -15.04934 -10.89945 -10.89826 -10.89735
 Alpha  occ. eigenvalues --  -10.88752 -10.87414 -10.84946 -10.84332 -10.84311
 Alpha  occ. eigenvalues --   -8.57524  -8.55035  -8.54609  -6.40061  -6.39711
 Alpha  occ. eigenvalues --   -6.39399  -6.37597  -6.37282  -6.37163  -6.36853
 Alpha  occ. eigenvalues --   -6.36821  -6.36392  -1.20533  -1.12895  -1.12139
 Alpha  occ. eigenvalues --   -1.11337  -1.07643  -1.03801  -0.98824  -0.97396
 Alpha  occ. eigenvalues --   -0.88002  -0.84555  -0.82236  -0.73687  -0.71296
 Alpha  occ. eigenvalues --   -0.67838  -0.64612  -0.59530  -0.57258  -0.55386
 Alpha  occ. eigenvalues --   -0.53384  -0.52647  -0.52242  -0.51890  -0.50883
 Alpha  occ. eigenvalues --   -0.50387  -0.49356  -0.48215  -0.46805  -0.46074
 Alpha  occ. eigenvalues --   -0.45933  -0.45296  -0.43720  -0.43113  -0.39488
 Alpha  occ. eigenvalues --   -0.37627  -0.33119
 Alpha virt. eigenvalues --   -0.09329  -0.08268  -0.02098  -0.01262  -0.00502
 Alpha virt. eigenvalues --   -0.00362   0.00153   0.01254   0.02020   0.02229
 Alpha virt. eigenvalues --    0.02393   0.02957   0.03189   0.04002   0.04276
 Alpha virt. eigenvalues --    0.04487   0.05427   0.06007   0.06296   0.07068
 Alpha virt. eigenvalues --    0.07270   0.07527   0.07706   0.08289   0.08491
 Alpha virt. eigenvalues --    0.09375   0.10095   0.10397   0.10526   0.10813
 Alpha virt. eigenvalues --    0.11286   0.11395   0.11980   0.12526   0.13223
 Alpha virt. eigenvalues --    0.13490   0.13937   0.14455   0.15075   0.15190
 Alpha virt. eigenvalues --    0.15902   0.16274   0.16676   0.16812   0.17188
 Alpha virt. eigenvalues --    0.17359   0.17838   0.18615   0.19048   0.19561
 Alpha virt. eigenvalues --    0.19860   0.20239   0.20687   0.20950   0.21263
 Alpha virt. eigenvalues --    0.21876   0.22202   0.22584   0.22823   0.23615
 Alpha virt. eigenvalues --    0.23747   0.24118   0.24372   0.24701   0.25261
 Alpha virt. eigenvalues --    0.25698   0.25850   0.26223   0.26621   0.26750
 Alpha virt. eigenvalues --    0.27064   0.28334   0.29196   0.29664   0.30369
 Alpha virt. eigenvalues --    0.30712   0.32420   0.33456   0.34152   0.34714
 Alpha virt. eigenvalues --    0.34948   0.35471   0.36121   0.36935   0.37595
 Alpha virt. eigenvalues --    0.38155   0.39576   0.40728   0.41171   0.42048
 Alpha virt. eigenvalues --    0.42120   0.43484   0.44134   0.45740   0.45981
 Alpha virt. eigenvalues --    0.46958   0.48559   0.49571   0.50234   0.50602
 Alpha virt. eigenvalues --    0.51525   0.51858   0.53527   0.54166   0.54427
 Alpha virt. eigenvalues --    0.54702   0.55462   0.55736   0.55836   0.56455
 Alpha virt. eigenvalues --    0.57772   0.58142   0.58558   0.59217   0.60310
 Alpha virt. eigenvalues --    0.60554   0.61103   0.61587   0.62101   0.62713
 Alpha virt. eigenvalues --    0.63715   0.64721   0.64956   0.66005   0.66558
 Alpha virt. eigenvalues --    0.67685   0.68189   0.68807   0.70107   0.70418
 Alpha virt. eigenvalues --    0.71046   0.72863   0.73469   0.73856   0.75366
 Alpha virt. eigenvalues --    0.75565   0.76458   0.77061   0.77552   0.77841
 Alpha virt. eigenvalues --    0.78246   0.79256   0.79761   0.79877   0.81110
 Alpha virt. eigenvalues --    0.81536   0.82546   0.83277   0.83955   0.84871
 Alpha virt. eigenvalues --    0.85698   0.85940   0.87122   0.87247   0.88404
 Alpha virt. eigenvalues --    0.88460   0.89344   0.89665   0.89832   0.90731
 Alpha virt. eigenvalues --    0.91172   0.91723   0.92831   0.93723   0.94366
 Alpha virt. eigenvalues --    0.95434   0.95566   0.97325   0.98743   0.99313
 Alpha virt. eigenvalues --    0.99846   1.01206   1.02844   1.03576   1.04751
 Alpha virt. eigenvalues --    1.05758   1.06743   1.08040   1.08543   1.09636
 Alpha virt. eigenvalues --    1.10231   1.11403   1.13194   1.13608   1.14404
 Alpha virt. eigenvalues --    1.15324   1.17105   1.18344   1.20286   1.20631
 Alpha virt. eigenvalues --    1.21611   1.22699   1.23939   1.24219   1.26561
 Alpha virt. eigenvalues --    1.27345   1.29758   1.30252   1.32274   1.34124
 Alpha virt. eigenvalues --    1.37313   1.40082   1.40256   1.41567   1.42727
 Alpha virt. eigenvalues --    1.43616   1.45023   1.46463   1.47271   1.49372
 Alpha virt. eigenvalues --    1.49822   1.50474   1.51640   1.51868   1.52334
 Alpha virt. eigenvalues --    1.53716   1.54190   1.55430   1.56137   1.56452
 Alpha virt. eigenvalues --    1.56789   1.58488   1.59727   1.60390   1.60515
 Alpha virt. eigenvalues --    1.62131   1.63280   1.64923   1.66029   1.67546
 Alpha virt. eigenvalues --    1.68613   1.69179   1.70471   1.71325   1.74153
 Alpha virt. eigenvalues --    1.76825   1.77079   1.79015   1.79376   1.81040
 Alpha virt. eigenvalues --    1.82959   1.85918   1.88151   1.89704   1.90607
 Alpha virt. eigenvalues --    1.91368   1.94486   1.95005   1.97393   2.00540
 Alpha virt. eigenvalues --    2.00827   2.05449   2.07038   2.08350   2.08475
 Alpha virt. eigenvalues --    2.10896   2.13937   2.18606   2.20235   2.24598
 Alpha virt. eigenvalues --    2.27647   2.30685   2.37026   2.37402   2.38001
 Alpha virt. eigenvalues --    2.38279   2.39369   2.39930   2.40470   2.42150
 Alpha virt. eigenvalues --    2.42559   2.43756   2.45057   2.51016   2.54996
 Alpha virt. eigenvalues --    2.61157   2.64126   2.68330   2.71900   2.73264
 Alpha virt. eigenvalues --    2.76309   2.78780   2.81840   2.94681   2.99730
 Alpha virt. eigenvalues --    3.01876   3.09943   3.11451   3.15939   3.17850
 Alpha virt. eigenvalues --    3.24294   3.27128   3.35293   3.59304   3.74890
          Condensed to atoms (all electrons):
 Mulliken charges:
               1
     1  C    0.620976
     2  C   -0.109032
     3  S    0.374482
     4  S    0.296500
     5  C    1.040065
     6  C    1.131028
     7  C    0.786947
     8  N   -1.083492
     9  S    0.557158
    10  C   -1.130139
    11  N   -0.167892
    12  C   -1.100071
    13  N   -0.180537
    14  C   -0.852993
    15  N   -0.183000
 Sum of Mulliken charges =  -0.00000
 Mulliken charges with hydrogens summed into heavy atoms:
               1
     1  C    0.620976
     2  C   -0.109032
     3  S    0.374482
     4  S    0.296500
     5  C    1.040065
     6  C    1.131028
     7  C    0.786947
     8  N   -1.083492
     9  S    0.557158
    10  C   -1.130139
    11  N   -0.167892
    12  C   -1.100071
    13  N   -0.180537
    14  C   -0.852993
    15  N   -0.183000
 Electronic spatial extent (au):  <R**2>=           4013.7183
 Charge=             -0.0000 electrons
 Dipole moment (field-independent basis, Debye):
    X=             -0.0510    Y=              1.1684    Z=             -4.5369  Tot=              4.6852

 Test job not archived.
 1\1\GINC-CHIMERA-NODE50\SP\RM05\Gen\C8N4S3\CONNORNM\19-Jan-2019\0\\#T 
 M05/Gen test Massage SCF=(fermi,maxcyc=60)\\M05 opt\\0,1\C,0,0.1562486
 1,0.86359407,-0.52048108\C,0,-0.4021822,-0.18431395,-1.30525523\S,0,1.
 23135588,0.63821253,0.85132946\S,0,-0.12559977,-1.90659301,-1.0021953\
 C,0,0.61377011,-0.89372299,1.4962197\C,0,0.07744061,-1.90151284,0.7584
 1598\C,0,-0.21714427,2.084996,-1.04398687\N,0,-1.13852162,0.15935372,-
 2.33363105\S,0,-1.18886853,1.81879886,-2.45456037\C,0,0.77113955,-1.01
 047676,2.90784751\N,0,0.94239943,-1.06921242,4.05606927\C,0,-0.3474943
 ,-3.11651342,1.372538\N,0,-0.6796457,-4.13380136,1.82610918\C,0,0.1236
 5629,3.38002287,-0.58362959\N,0,0.40089162,4.45045361,-0.22527988\\Ver
 sion=AS64L-G09RevD.01\HF=-1724.7614801\RMSD=5.139e-09\Dipole=-0.020067
 9,0.4596819,-1.7849644\Quadrupole=10.440284,-9.3831746,-1.0571094,-5.0
 943754,-0.8393441,3.6152474\PG=C01 [X(C8N4S3)]\\@


 IF AT FIRST YOU DON'T SUCCEED, TRY, TRY AGAIN.
 THEN GIVE UP;
 THERE'S NO USE BEING A DAMN FOOL ABOUT IT.

                                 -- W. C. FIELDS
 Job cpu time:       0 days  1 hours 37 minutes 44.3 seconds.
 File lengths (MBytes):  RWF=     58 Int=      0 D2E=      0 Chk=      6 Scr=      1
 Normal termination of Gaussian 09 at Sat Jan 19 11:16:50 2019.
