 Entering Gaussian System, Link 0=/data/szalewicgrp/connornm/opt/Gaussian/g09-M05-par/g09/g09
 AtFile(1): blind-aug.gbs
 Initial command:
 /data/szalewicgrp/connornm/opt/Gaussian/g09-M05-par/g09/l1.exe "/scratch/local/Gau-10027.inp" -scrdir="/scratch/local/"
 Entering Link 1 = /data/szalewicgrp/connornm/opt/Gaussian/g09-M05-par/g09/l1.exe PID=     10028.
  
 Copyright (c) 1988,1990,1992,1993,1995,1998,2003,2009,2013,
            Gaussian, Inc.  All Rights Reserved.
  
 This is part of the Gaussian(R) 09 program.  It is based on
 the Gaussian(R) 03 system (copyright 2003, Gaussian, Inc.),
 the Gaussian(R) 98 system (copyright 1998, Gaussian, Inc.),
 the Gaussian(R) 94 system (copyright 1995, Gaussian, Inc.),
 the Gaussian 92(TM) system (copyright 1992, Gaussian, Inc.),
 the Gaussian 90(TM) system (copyright 1990, Gaussian, Inc.),
 the Gaussian 88(TM) system (copyright 1988, Gaussian, Inc.),
 the Gaussian 86(TM) system (copyright 1986, Carnegie Mellon
 University), and the Gaussian 82(TM) system (copyright 1983,
 Carnegie Mellon University). Gaussian is a federally registered
 trademark of Gaussian, Inc.
  
 This software contains proprietary and confidential information,
 including trade secrets, belonging to Gaussian, Inc.
  
 This software is provided under written license and may be
 used, copied, transmitted, or stored only in accord with that
 written license.
  
 The following legend is applicable only to US Government
 contracts under FAR:
  
                    RESTRICTED RIGHTS LEGEND
  
 Use, reproduction and disclosure by the US Government is
 subject to restrictions as set forth in subparagraphs (a)
 and (c) of the Commercial Computer Software - Restricted
 Rights clause in FAR 52.227-19.
  
 Gaussian, Inc.
 340 Quinnipiac St., Bldg. 40, Wallingford CT 06492
  
  
 ---------------------------------------------------------------
 Warning -- This program may not be used in any manner that
 competes with the business of Gaussian, Inc. or will provide
 assistance to any competitor of Gaussian, Inc.  The licensee
 of this program is prohibited from giving any competitor of
 Gaussian, Inc. access to this program.  By using this program,
 the user acknowledges that Gaussian, Inc. is engaged in the
 business of creating and licensing software in the field of
 computational chemistry and represents and warrants to the
 licensee that it is not a competitor of Gaussian, Inc. and that
 it will not use this program in any manner prohibited above.
 ---------------------------------------------------------------
  

 Cite this work as:
 Gaussian 09, Revision D.01,
 M. J. Frisch, G. W. Trucks, H. B. Schlegel, G. E. Scuseria, 
 M. A. Robb, J. R. Cheeseman, G. Scalmani, V. Barone, B. Mennucci, 
 G. A. Petersson, H. Nakatsuji, M. Caricato, X. Li, H. P. Hratchian, 
 A. F. Izmaylov, J. Bloino, G. Zheng, J. L. Sonnenberg, M. Hada, 
 M. Ehara, K. Toyota, R. Fukuda, J. Hasegawa, M. Ishida, T. Nakajima, 
 Y. Honda, O. Kitao, H. Nakai, T. Vreven, J. A. Montgomery, Jr., 
 J. E. Peralta, F. Ogliaro, M. Bearpark, J. J. Heyd, E. Brothers, 
 K. N. Kudin, V. N. Staroverov, T. Keith, R. Kobayashi, J. Normand, 
 K. Raghavachari, A. Rendell, J. C. Burant, S. S. Iyengar, J. Tomasi, 
 M. Cossi, N. Rega, J. M. Millam, M. Klene, J. E. Knox, J. B. Cross, 
 V. Bakken, C. Adamo, J. Jaramillo, R. Gomperts, R. E. Stratmann, 
 O. Yazyev, A. J. Austin, R. Cammi, C. Pomelli, J. W. Ochterski, 
 R. L. Martin, K. Morokuma, V. G. Zakrzewski, G. A. Voth, 
 P. Salvador, J. J. Dannenberg, S. Dapprich, A. D. Daniels, 
 O. Farkas, J. B. Foresman, J. V. Ortiz, J. Cioslowski, 
 and D. J. Fox, Gaussian, Inc., Wallingford CT, 2013.
 
 ******************************************
 Gaussian 09:  AS64L-G09RevD.01 24-Apr-2013
                19-Jan-2019 
 ******************************************
 %Chk=BLIND00308_mB
 %Mem=1GB
 %NProcShared=48
 Will use up to   48 processors via shared memory.
 ---------------------------------------------
 #T M05/Gen test Massage SCF=(fermi,maxcyc=60)
 ---------------------------------------------
 -------
 M05 opt
 -------
 Symbolic Z-matrix:
 Charge =  0 Multiplicity = 1
 6                    -0.24861   0.96964   6.50292 
 6                     1.14612   0.76539   6.70002 
 16                   -1.36073  -0.21568   5.83454 
 16                    1.99003  -0.74603   6.32854 
 6                    -0.62958  -1.71634   6.43248 
 6                     0.69973  -1.92399   6.62606 
 6                    -0.58172   2.26357   6.84945 
 7                     1.84529   1.77672   7.15416 
 16                    0.85191   3.09746   7.35358 
 6                    -1.58308  -2.75022   6.66272 
 7                    -2.39467  -3.56876   6.81279 
 6                     1.18968  -3.18869   7.06701 
 7                     1.6356   -4.21013   7.39678 
 6                    -1.85128   2.88859   6.7971 
 7                    -2.88392   3.42029   6.75191 
 
                    Distance matrix (angstroms):
                    1          2          3          4          5
     1  C    0.000000
     2  C    1.423315   0.000000
     3  S    1.757418   2.827694   0.000000
     4  S    2.825849   1.770477   3.428253   0.000000
     5  C    2.713774   3.063280   1.773167   2.795470   0.000000
     6  C    3.047557   2.727187   2.791121   1.772288   1.359281
     7  C    1.380327   2.291783   2.789903   3.992857   4.001979
     8  N    2.336642   1.310672   3.998700   2.658358   4.341342
     9  S    2.542129   2.439721   4.263822   4.137445   5.120151
    10  C    3.955208   4.450782   2.675676   4.110426   1.425163
    11  N    5.029770   5.597745   3.642685   5.237162   2.586817
    12  C    4.436049   3.971317   4.106384   2.674416   2.424897
    13  N    5.583831   5.047859   5.232040   3.642352   3.504263
    14  C    2.517432   3.674472   3.286888   5.309014   4.778168
    15  N    3.607292   4.826214   4.047461   6.425950   5.618639
                    6          7          8          9         10
     6  C    0.000000
     7  C    4.384939   0.000000
     8  N    3.909794   2.494036   0.000000
     9  S    5.076167   1.733444   1.664607   0.000000
    10  C    2.428007   5.116215   5.699860   6.371958   0.000000
    11  N    3.509330   6.107712   6.831389   7.434461   1.162408
    12  C    1.426163   5.736923   5.009263   6.301738   2.836178
    13  N    2.587713   6.864751   5.995430   7.349618   3.609722
    14  C    5.449573   1.416040   3.876636   2.767765   5.646781
    15  N    6.435818   2.578302   5.022796   3.797715   6.306769
                   11         12         13         14         15
    11  N    0.000000
    12  C    3.613393   0.000000
    13  N    4.122555   1.162293   0.000000
    14  C    6.480188   6.800997   7.931563   0.000000
    15  N    7.006418   7.769948   8.891861   1.162367   0.000000
 Symmetry turned off by external request.
 Framework group  C1[X(C8N4S3)]
 Deg. of freedom    39
 Rotational constants (GHZ):      0.7722167      0.3388923      0.2463240
   357 basis functions,   759 primitive gaussians,   387 cartesian basis functions
    62 alpha electrons       62 beta electrons
       nuclear repulsion energy      1166.1400403612 Hartrees.
 IMHF & INEx in M05                  599485                  400514
 NAtoms=   15 NActive=   15 NUniq=   15 SFac= 1.00D+00 NAtFMM=   60 NAOKFM=F Big=F
 PrsmSu:  requested number of processors reduced to:  34 ShMem   1 Linda.
 ExpMin= 3.99D-02 ExpMax= 1.11D+05 ExpMxC= 1.07D+03 IAcc=3 IRadAn=         5 AccDes= 0.00D+00
 Harris functional with IExCor= 1009 and IRadAn=       5 diagonalized for initial guess.
 HarFok:  IExCor= 1009 AccDes= 0.00D+00 IRadAn=         5 IDoV= 1 UseB2=F ITyADJ=14
 ICtDFT=  3500011 ScaDFX=  1.000000  1.000000  1.000000  1.000000
 FoFCou: FMM=F IPFlag=           0 FMFlag=      100000 FMFlg1=           0
         NFxFlg=           0 DoJE=T BraDBF=F KetDBF=T FulRan=T
         wScrn=  0.000000 ICntrl=     500 IOpCl=  0 I1Cent=   200000004 NGrid=           0
         NMat0=    1 NMatS0=      1 NMatT0=    0 NMatD0=    1 NMtDS0=    0 NMtDT0=    0
 Symmetry not used in FoFCou.
 SCF Done:  E(RM05) =  -1724.76145669     A.U. after   17 cycles
            NFock= 17  Conv=0.51D-08     -V/T= 2.0061

 **********************************************************************

            Population analysis using the SCF density.

 **********************************************************************

 Alpha  occ. eigenvalues --  -90.56430 -90.53635 -90.53181 -15.08622 -15.05417
 Alpha  occ. eigenvalues --  -15.04969 -15.04934 -10.89944 -10.89826 -10.89736
 Alpha  occ. eigenvalues --  -10.88752 -10.87414 -10.84947 -10.84331 -10.84310
 Alpha  occ. eigenvalues --   -8.57525  -8.55035  -8.54609  -6.40063  -6.39712
 Alpha  occ. eigenvalues --   -6.39401  -6.37597  -6.37282  -6.37162  -6.36852
 Alpha  occ. eigenvalues --   -6.36821  -6.36392  -1.20533  -1.12895  -1.12139
 Alpha  occ. eigenvalues --   -1.11337  -1.07643  -1.03801  -0.98824  -0.97395
 Alpha  occ. eigenvalues --   -0.88002  -0.84555  -0.82236  -0.73687  -0.71296
 Alpha  occ. eigenvalues --   -0.67839  -0.64612  -0.59530  -0.57258  -0.55386
 Alpha  occ. eigenvalues --   -0.53385  -0.52648  -0.52242  -0.51890  -0.50883
 Alpha  occ. eigenvalues --   -0.50387  -0.49356  -0.48215  -0.46805  -0.46074
 Alpha  occ. eigenvalues --   -0.45932  -0.45296  -0.43720  -0.43113  -0.39488
 Alpha  occ. eigenvalues --   -0.37627  -0.33119
 Alpha virt. eigenvalues --   -0.09329  -0.08269  -0.02098  -0.01263  -0.00500
 Alpha virt. eigenvalues --   -0.00362   0.00153   0.01256   0.02024   0.02231
 Alpha virt. eigenvalues --    0.02398   0.02959   0.03193   0.04003   0.04281
 Alpha virt. eigenvalues --    0.04487   0.05428   0.06010   0.06300   0.07068
 Alpha virt. eigenvalues --    0.07277   0.07526   0.07709   0.08290   0.08493
 Alpha virt. eigenvalues --    0.09381   0.10093   0.10392   0.10525   0.10812
 Alpha virt. eigenvalues --    0.11289   0.11390   0.11977   0.12527   0.13229
 Alpha virt. eigenvalues --    0.13495   0.13940   0.14452   0.15076   0.15193
 Alpha virt. eigenvalues --    0.15902   0.16275   0.16677   0.16813   0.17193
 Alpha virt. eigenvalues --    0.17364   0.17836   0.18617   0.19061   0.19569
 Alpha virt. eigenvalues --    0.19860   0.20251   0.20689   0.20957   0.21270
 Alpha virt. eigenvalues --    0.21888   0.22207   0.22584   0.22815   0.23615
 Alpha virt. eigenvalues --    0.23747   0.24115   0.24366   0.24704   0.25259
 Alpha virt. eigenvalues --    0.25693   0.25856   0.26228   0.26621   0.26749
 Alpha virt. eigenvalues --    0.27075   0.28332   0.29196   0.29662   0.30370
 Alpha virt. eigenvalues --    0.30711   0.32421   0.33459   0.34154   0.34719
 Alpha virt. eigenvalues --    0.34947   0.35470   0.36121   0.36935   0.37594
 Alpha virt. eigenvalues --    0.38153   0.39575   0.40725   0.41169   0.42050
 Alpha virt. eigenvalues --    0.42123   0.43485   0.44141   0.45737   0.45977
 Alpha virt. eigenvalues --    0.46959   0.48547   0.49576   0.50227   0.50598
 Alpha virt. eigenvalues --    0.51526   0.51861   0.53530   0.54167   0.54429
 Alpha virt. eigenvalues --    0.54700   0.55465   0.55738   0.55839   0.56449
 Alpha virt. eigenvalues --    0.57766   0.58136   0.58556   0.59210   0.60313
 Alpha virt. eigenvalues --    0.60550   0.61103   0.61588   0.62105   0.62710
 Alpha virt. eigenvalues --    0.63722   0.64719   0.64955   0.66005   0.66555
 Alpha virt. eigenvalues --    0.67686   0.68188   0.68805   0.70110   0.70414
 Alpha virt. eigenvalues --    0.71048   0.72858   0.73463   0.73857   0.75373
 Alpha virt. eigenvalues --    0.75569   0.76457   0.77063   0.77551   0.77842
 Alpha virt. eigenvalues --    0.78243   0.79256   0.79760   0.79880   0.81105
 Alpha virt. eigenvalues --    0.81537   0.82544   0.83276   0.83957   0.84871
 Alpha virt. eigenvalues --    0.85700   0.85940   0.87123   0.87252   0.88407
 Alpha virt. eigenvalues --    0.88459   0.89344   0.89668   0.89830   0.90730
 Alpha virt. eigenvalues --    0.91171   0.91724   0.92825   0.93720   0.94366
 Alpha virt. eigenvalues --    0.95434   0.95563   0.97324   0.98747   0.99313
 Alpha virt. eigenvalues --    0.99848   1.01209   1.02844   1.03576   1.04750
 Alpha virt. eigenvalues --    1.05759   1.06746   1.08040   1.08546   1.09634
 Alpha virt. eigenvalues --    1.10234   1.11403   1.13197   1.13608   1.14402
 Alpha virt. eigenvalues --    1.15323   1.17102   1.18347   1.20285   1.20629
 Alpha virt. eigenvalues --    1.21606   1.22702   1.23936   1.24224   1.26559
 Alpha virt. eigenvalues --    1.27346   1.29756   1.30248   1.32269   1.34128
 Alpha virt. eigenvalues --    1.37314   1.40084   1.40260   1.41563   1.42729
 Alpha virt. eigenvalues --    1.43616   1.45021   1.46462   1.47272   1.49369
 Alpha virt. eigenvalues --    1.49823   1.50475   1.51643   1.51868   1.52331
 Alpha virt. eigenvalues --    1.53715   1.54193   1.55429   1.56136   1.56451
 Alpha virt. eigenvalues --    1.56792   1.58485   1.59726   1.60391   1.60516
 Alpha virt. eigenvalues --    1.62131   1.63281   1.64923   1.66027   1.67547
 Alpha virt. eigenvalues --    1.68617   1.69175   1.70472   1.71322   1.74152
 Alpha virt. eigenvalues --    1.76826   1.77078   1.79016   1.79375   1.81046
 Alpha virt. eigenvalues --    1.82958   1.85922   1.88150   1.89703   1.90607
 Alpha virt. eigenvalues --    1.91366   1.94485   1.95003   1.97392   2.00541
 Alpha virt. eigenvalues --    2.00828   2.05446   2.07036   2.08349   2.08473
 Alpha virt. eigenvalues --    2.10898   2.13937   2.18605   2.20236   2.24595
 Alpha virt. eigenvalues --    2.27644   2.30687   2.37025   2.37401   2.38001
 Alpha virt. eigenvalues --    2.38279   2.39370   2.39931   2.40471   2.42151
 Alpha virt. eigenvalues --    2.42561   2.43756   2.45057   2.51013   2.54996
 Alpha virt. eigenvalues --    2.61157   2.64130   2.68330   2.71899   2.73263
 Alpha virt. eigenvalues --    2.76309   2.78780   2.81841   2.94680   2.99731
 Alpha virt. eigenvalues --    3.01875   3.09943   3.11452   3.15939   3.17850
 Alpha virt. eigenvalues --    3.24296   3.27132   3.35295   3.59313   3.74890
          Condensed to atoms (all electrons):
 Mulliken charges:
               1
     1  C    0.618935
     2  C   -0.109218
     3  S    0.374894
     4  S    0.297288
     5  C    1.040027
     6  C    1.130680
     7  C    0.787175
     8  N   -1.083527
     9  S    0.557827
    10  C   -1.129844
    11  N   -0.168134
    12  C   -1.099444
    13  N   -0.180717
    14  C   -0.853079
    15  N   -0.182861
 Sum of Mulliken charges =  -0.00000
 Mulliken charges with hydrogens summed into heavy atoms:
               1
     1  C    0.618935
     2  C   -0.109218
     3  S    0.374894
     4  S    0.297288
     5  C    1.040027
     6  C    1.130680
     7  C    0.787175
     8  N   -1.083527
     9  S    0.557827
    10  C   -1.129844
    11  N   -0.168134
    12  C   -1.099444
    13  N   -0.180717
    14  C   -0.853079
    15  N   -0.182861
 Electronic spatial extent (au):  <R**2>=          23907.2720
 Charge=             -0.0000 electrons
 Dipole moment (field-independent basis, Debye):
    X=              2.4145    Y=              3.8662    Z=             -1.0855  Tot=              4.6856

 Test job not archived.
 1\1\GINC-CHIMERA-NODE50\SP\RM05\Gen\C8N4S3\CONNORNM\19-Jan-2019\0\\#T 
 M05/Gen test Massage SCF=(fermi,maxcyc=60)\\M05 opt\\0,1\C,0,-0.248610
 29,0.96963548,6.50292051\C,0,1.14611701,0.76539451,6.70001957\S,0,-1.3
 6073195,-0.21567601,5.83453534\S,0,1.99002984,-0.74602905,6.32853835\C
 ,0,-0.62957711,-1.71634173,6.43247937\C,0,0.69972743,-1.92399489,6.626
 06051\C,0,-0.58171836,2.26356815,6.84944681\N,0,1.84528547,1.7767212,7
 .15415808\S,0,0.8519118,3.09746177,7.35358225\C,0,-1.58308453,-2.75021
 807,6.66272486\N,0,-2.39466856,-3.56875666,6.81278804\C,0,1.18967584,-
 3.18868923,7.06701485\N,0,1.63559929,-4.21012725,7.39677654\C,0,-1.851
 27603,2.88858946,6.79710073\N,0,-2.8839155,3.42029375,6.75191004\\Vers
 ion=AS64L-G09RevD.01\HF=-1724.7614567\RMSD=5.125e-09\Dipole=0.9499353,
 1.5210687,-0.427049\Quadrupole=0.9608353,-4.8062806,3.8454452,4.603239
 3,11.2454115,23.3856552\PG=C01 [X(C8N4S3)]\\@


 LENDING MONEY TO FRIENDS CAUSES THEM TO LOSE THEIR MEMORIES.

    --  PETER'S THEORY OF RECIPROCAL INHIBITION OF FISCAL RECALL
 Job cpu time:       0 days  1 hours 37 minutes 16.7 seconds.
 File lengths (MBytes):  RWF=     58 Int=      0 D2E=      0 Chk=      6 Scr=      1
 Normal termination of Gaussian 09 at Sat Jan 19 11:18:53 2019.
