 Entering Gaussian System, Link 0=/data/szalewicgrp/connornm/opt/Gaussian/g09-M05-par/g09/g09
 AtFile(1): blind-aug.gbs
 Initial command:
 /data/szalewicgrp/connornm/opt/Gaussian/g09-M05-par/g09/l1.exe "/scratch/local/Gau-41776.inp" -scrdir="/scratch/local/"
 Entering Link 1 = /data/szalewicgrp/connornm/opt/Gaussian/g09-M05-par/g09/l1.exe PID=     41777.
  
 Copyright (c) 1988,1990,1992,1993,1995,1998,2003,2009,2013,
            Gaussian, Inc.  All Rights Reserved.
  
 This is part of the Gaussian(R) 09 program.  It is based on
 the Gaussian(R) 03 system (copyright 2003, Gaussian, Inc.),
 the Gaussian(R) 98 system (copyright 1998, Gaussian, Inc.),
 the Gaussian(R) 94 system (copyright 1995, Gaussian, Inc.),
 the Gaussian 92(TM) system (copyright 1992, Gaussian, Inc.),
 the Gaussian 90(TM) system (copyright 1990, Gaussian, Inc.),
 the Gaussian 88(TM) system (copyright 1988, Gaussian, Inc.),
 the Gaussian 86(TM) system (copyright 1986, Carnegie Mellon
 University), and the Gaussian 82(TM) system (copyright 1983,
 Carnegie Mellon University). Gaussian is a federally registered
 trademark of Gaussian, Inc.
  
 This software contains proprietary and confidential information,
 including trade secrets, belonging to Gaussian, Inc.
  
 This software is provided under written license and may be
 used, copied, transmitted, or stored only in accord with that
 written license.
  
 The following legend is applicable only to US Government
 contracts under FAR:
  
                    RESTRICTED RIGHTS LEGEND
  
 Use, reproduction and disclosure by the US Government is
 subject to restrictions as set forth in subparagraphs (a)
 and (c) of the Commercial Computer Software - Restricted
 Rights clause in FAR 52.227-19.
  
 Gaussian, Inc.
 340 Quinnipiac St., Bldg. 40, Wallingford CT 06492
  
  
 ---------------------------------------------------------------
 Warning -- This program may not be used in any manner that
 competes with the business of Gaussian, Inc. or will provide
 assistance to any competitor of Gaussian, Inc.  The licensee
 of this program is prohibited from giving any competitor of
 Gaussian, Inc. access to this program.  By using this program,
 the user acknowledges that Gaussian, Inc. is engaged in the
 business of creating and licensing software in the field of
 computational chemistry and represents and warrants to the
 licensee that it is not a competitor of Gaussian, Inc. and that
 it will not use this program in any manner prohibited above.
 ---------------------------------------------------------------
  

 Cite this work as:
 Gaussian 09, Revision D.01,
 M. J. Frisch, G. W. Trucks, H. B. Schlegel, G. E. Scuseria, 
 M. A. Robb, J. R. Cheeseman, G. Scalmani, V. Barone, B. Mennucci, 
 G. A. Petersson, H. Nakatsuji, M. Caricato, X. Li, H. P. Hratchian, 
 A. F. Izmaylov, J. Bloino, G. Zheng, J. L. Sonnenberg, M. Hada, 
 M. Ehara, K. Toyota, R. Fukuda, J. Hasegawa, M. Ishida, T. Nakajima, 
 Y. Honda, O. Kitao, H. Nakai, T. Vreven, J. A. Montgomery, Jr., 
 J. E. Peralta, F. Ogliaro, M. Bearpark, J. J. Heyd, E. Brothers, 
 K. N. Kudin, V. N. Staroverov, T. Keith, R. Kobayashi, J. Normand, 
 K. Raghavachari, A. Rendell, J. C. Burant, S. S. Iyengar, J. Tomasi, 
 M. Cossi, N. Rega, J. M. Millam, M. Klene, J. E. Knox, J. B. Cross, 
 V. Bakken, C. Adamo, J. Jaramillo, R. Gomperts, R. E. Stratmann, 
 O. Yazyev, A. J. Austin, R. Cammi, C. Pomelli, J. W. Ochterski, 
 R. L. Martin, K. Morokuma, V. G. Zakrzewski, G. A. Voth, 
 P. Salvador, J. J. Dannenberg, S. Dapprich, A. D. Daniels, 
 O. Farkas, J. B. Foresman, J. V. Ortiz, J. Cioslowski, 
 and D. J. Fox, Gaussian, Inc., Wallingford CT, 2013.
 
 ******************************************
 Gaussian 09:  AS64L-G09RevD.01 24-Apr-2013
                19-Jan-2019 
 ******************************************
 %Chk=BLIND01924_mA
 %Mem=1GB
 %NProcShared=48
 Will use up to   48 processors via shared memory.
 ---------------------------------------------
 #T M05/Gen test Massage SCF=(fermi,maxcyc=60)
 ---------------------------------------------
 -------
 M05 opt
 -------
 Symbolic Z-matrix:
 Charge =  0 Multiplicity = 1
 6                     0.82212   0.324    -0.51015 
 6                     0.754    -1.0912   -0.37443 
 16                    0.18033   1.48364   0.64391 
 16                   -0.02638  -1.92179   0.98046 
 6                    -1.22486   0.58913   1.25171 
 6                    -1.30326  -0.7613    1.38523 
 6                     1.53121   0.64737  -1.64942 
 7                     1.33745  -1.81429  -1.29886 
 16                    2.06004  -0.81442  -2.41645 
 6                    -2.29876   1.43742   1.64949 
 7                    -3.13712   2.17053   1.9825 
 6                    -2.46666  -1.37975   1.9311 
 7                    -3.3819   -1.9238    2.39721 
 6                     1.845     1.93252  -2.15449 
 7                     2.11955   2.97937  -2.57853 
 
                    Distance matrix (angstroms):
                    1          2          3          4          5
     1  C    0.000000
     2  C    1.423315   0.000000
     3  S    1.757418   2.827694   0.000000
     4  S    2.825849   1.770477   3.428253   0.000000
     5  C    2.713774   3.063280   1.773167   2.795470   0.000000
     6  C    3.047557   2.727187   2.791121   1.772288   1.359281
     7  C    1.380327   2.291783   2.789903   3.992857   4.001979
     8  N    2.336642   1.310672   3.998700   2.658358   4.341342
     9  S    2.542129   2.439721   4.263822   4.137445   5.120151
    10  C    3.955208   4.450782   2.675676   4.110426   1.425163
    11  N    5.029770   5.597745   3.642685   5.237162   2.586817
    12  C    4.436049   3.971317   4.106384   2.674416   2.424897
    13  N    5.583831   5.047859   5.232040   3.642352   3.504263
    14  C    2.517432   3.674472   3.286888   5.309014   4.778168
    15  N    3.607292   4.826214   4.047461   6.425950   5.618639
                    6          7          8          9         10
     6  C    0.000000
     7  C    4.384939   0.000000
     8  N    3.909794   2.494036   0.000000
     9  S    5.076167   1.733444   1.664607   0.000000
    10  C    2.428007   5.116215   5.699860   6.371958   0.000000
    11  N    3.509330   6.107712   6.831389   7.434461   1.162408
    12  C    1.426163   5.736923   5.009263   6.301738   2.836178
    13  N    2.587713   6.864751   5.995430   7.349618   3.609722
    14  C    5.449573   1.416040   3.876636   2.767765   5.646781
    15  N    6.435818   2.578302   5.022796   3.797715   6.306769
                   11         12         13         14         15
    11  N    0.000000
    12  C    3.613393   0.000000
    13  N    4.122555   1.162293   0.000000
    14  C    6.480188   6.800997   7.931563   0.000000
    15  N    7.006418   7.769948   8.891861   1.162367   0.000000
 Symmetry turned off by external request.
 Framework group  C1[X(C8N4S3)]
 Deg. of freedom    39
 Rotational constants (GHZ):      0.7722167      0.3388923      0.2463240
   357 basis functions,   759 primitive gaussians,   387 cartesian basis functions
    62 alpha electrons       62 beta electrons
       nuclear repulsion energy      1166.1400400772 Hartrees.
 IMHF & INEx in M05                  599485                  400514
 NAtoms=   15 NActive=   15 NUniq=   15 SFac= 1.00D+00 NAtFMM=   60 NAOKFM=F Big=F
 PrsmSu:  requested number of processors reduced to:  34 ShMem   1 Linda.
 ExpMin= 3.99D-02 ExpMax= 1.11D+05 ExpMxC= 1.07D+03 IAcc=3 IRadAn=         5 AccDes= 0.00D+00
 Harris functional with IExCor= 1009 and IRadAn=       5 diagonalized for initial guess.
 HarFok:  IExCor= 1009 AccDes= 0.00D+00 IRadAn=         5 IDoV= 1 UseB2=F ITyADJ=14
 ICtDFT=  3500011 ScaDFX=  1.000000  1.000000  1.000000  1.000000
 FoFCou: FMM=F IPFlag=           0 FMFlag=      100000 FMFlg1=           0
         NFxFlg=           0 DoJE=T BraDBF=F KetDBF=T FulRan=T
         wScrn=  0.000000 ICntrl=     500 IOpCl=  0 I1Cent=   200000004 NGrid=           0
         NMat0=    1 NMatS0=      1 NMatT0=    0 NMatD0=    1 NMtDS0=    0 NMtDT0=    0
 Symmetry not used in FoFCou.
 SCF Done:  E(RM05) =  -1724.76147495     A.U. after   17 cycles
            NFock= 17  Conv=0.52D-08     -V/T= 2.0061

 **********************************************************************

            Population analysis using the SCF density.

 **********************************************************************

 Alpha  occ. eigenvalues --  -90.56429 -90.53637 -90.53182 -15.08622 -15.05417
 Alpha  occ. eigenvalues --  -15.04968 -15.04934 -10.89944 -10.89826 -10.89736
 Alpha  occ. eigenvalues --  -10.88752 -10.87414 -10.84946 -10.84331 -10.84311
 Alpha  occ. eigenvalues --   -8.57525  -8.55036  -8.54609  -6.40062  -6.39712
 Alpha  occ. eigenvalues --   -6.39400  -6.37598  -6.37283  -6.37162  -6.36853
 Alpha  occ. eigenvalues --   -6.36823  -6.36392  -1.20533  -1.12895  -1.12139
 Alpha  occ. eigenvalues --   -1.11337  -1.07643  -1.03801  -0.98824  -0.97396
 Alpha  occ. eigenvalues --   -0.88003  -0.84555  -0.82236  -0.73686  -0.71296
 Alpha  occ. eigenvalues --   -0.67838  -0.64612  -0.59530  -0.57258  -0.55386
 Alpha  occ. eigenvalues --   -0.53384  -0.52648  -0.52243  -0.51890  -0.50883
 Alpha  occ. eigenvalues --   -0.50387  -0.49356  -0.48215  -0.46805  -0.46074
 Alpha  occ. eigenvalues --   -0.45933  -0.45296  -0.43720  -0.43113  -0.39488
 Alpha  occ. eigenvalues --   -0.37628  -0.33119
 Alpha virt. eigenvalues --   -0.09329  -0.08268  -0.02099  -0.01263  -0.00501
 Alpha virt. eigenvalues --   -0.00362   0.00153   0.01255   0.02022   0.02229
 Alpha virt. eigenvalues --    0.02393   0.02957   0.03190   0.04003   0.04277
 Alpha virt. eigenvalues --    0.04485   0.05428   0.06007   0.06299   0.07067
 Alpha virt. eigenvalues --    0.07272   0.07524   0.07707   0.08291   0.08491
 Alpha virt. eigenvalues --    0.09376   0.10092   0.10393   0.10526   0.10812
 Alpha virt. eigenvalues --    0.11286   0.11390   0.11976   0.12528   0.13227
 Alpha virt. eigenvalues --    0.13489   0.13934   0.14454   0.15074   0.15190
 Alpha virt. eigenvalues --    0.15908   0.16280   0.16678   0.16817   0.17189
 Alpha virt. eigenvalues --    0.17361   0.17845   0.18612   0.19056   0.19564
 Alpha virt. eigenvalues --    0.19863   0.20242   0.20682   0.20941   0.21268
 Alpha virt. eigenvalues --    0.21889   0.22208   0.22578   0.22821   0.23614
 Alpha virt. eigenvalues --    0.23753   0.24118   0.24367   0.24702   0.25256
 Alpha virt. eigenvalues --    0.25694   0.25855   0.26225   0.26627   0.26743
 Alpha virt. eigenvalues --    0.27070   0.28334   0.29195   0.29662   0.30370
 Alpha virt. eigenvalues --    0.30714   0.32418   0.33460   0.34157   0.34716
 Alpha virt. eigenvalues --    0.34950   0.35469   0.36121   0.36935   0.37595
 Alpha virt. eigenvalues --    0.38150   0.39579   0.40727   0.41172   0.42050
 Alpha virt. eigenvalues --    0.42117   0.43489   0.44135   0.45736   0.45982
 Alpha virt. eigenvalues --    0.46968   0.48559   0.49575   0.50238   0.50596
 Alpha virt. eigenvalues --    0.51528   0.51854   0.53532   0.54165   0.54423
 Alpha virt. eigenvalues --    0.54700   0.55466   0.55730   0.55841   0.56450
 Alpha virt. eigenvalues --    0.57778   0.58140   0.58557   0.59218   0.60313
 Alpha virt. eigenvalues --    0.60552   0.61101   0.61585   0.62105   0.62709
 Alpha virt. eigenvalues --    0.63712   0.64718   0.64956   0.66007   0.66558
 Alpha virt. eigenvalues --    0.67688   0.68191   0.68803   0.70109   0.70414
 Alpha virt. eigenvalues --    0.71047   0.72864   0.73469   0.73854   0.75373
 Alpha virt. eigenvalues --    0.75564   0.76456   0.77061   0.77554   0.77844
 Alpha virt. eigenvalues --    0.78245   0.79256   0.79760   0.79879   0.81107
 Alpha virt. eigenvalues --    0.81538   0.82547   0.83278   0.83957   0.84871
 Alpha virt. eigenvalues --    0.85700   0.85940   0.87124   0.87250   0.88404
 Alpha virt. eigenvalues --    0.88458   0.89346   0.89667   0.89830   0.90731
 Alpha virt. eigenvalues --    0.91172   0.91721   0.92831   0.93720   0.94368
 Alpha virt. eigenvalues --    0.95430   0.95564   0.97325   0.98745   0.99313
 Alpha virt. eigenvalues --    0.99850   1.01206   1.02847   1.03578   1.04754
 Alpha virt. eigenvalues --    1.05757   1.06748   1.08037   1.08539   1.09634
 Alpha virt. eigenvalues --    1.10234   1.11401   1.13197   1.13606   1.14403
 Alpha virt. eigenvalues --    1.15321   1.17100   1.18345   1.20284   1.20634
 Alpha virt. eigenvalues --    1.21608   1.22703   1.23936   1.24222   1.26555
 Alpha virt. eigenvalues --    1.27345   1.29757   1.30250   1.32273   1.34126
 Alpha virt. eigenvalues --    1.37313   1.40084   1.40258   1.41564   1.42730
 Alpha virt. eigenvalues --    1.43615   1.45022   1.46464   1.47273   1.49371
 Alpha virt. eigenvalues --    1.49824   1.50474   1.51640   1.51871   1.52335
 Alpha virt. eigenvalues --    1.53715   1.54192   1.55431   1.56138   1.56448
 Alpha virt. eigenvalues --    1.56792   1.58487   1.59727   1.60389   1.60515
 Alpha virt. eigenvalues --    1.62130   1.63282   1.64921   1.66028   1.67545
 Alpha virt. eigenvalues --    1.68616   1.69172   1.70471   1.71326   1.74154
 Alpha virt. eigenvalues --    1.76825   1.77079   1.79016   1.79379   1.81040
 Alpha virt. eigenvalues --    1.82961   1.85917   1.88150   1.89701   1.90608
 Alpha virt. eigenvalues --    1.91371   1.94487   1.95006   1.97392   2.00540
 Alpha virt. eigenvalues --    2.00827   2.05448   2.07038   2.08350   2.08474
 Alpha virt. eigenvalues --    2.10896   2.13936   2.18603   2.20233   2.24592
 Alpha virt. eigenvalues --    2.27646   2.30685   2.37025   2.37401   2.38001
 Alpha virt. eigenvalues --    2.38279   2.39370   2.39930   2.40470   2.42150
 Alpha virt. eigenvalues --    2.42560   2.43755   2.45056   2.51011   2.54996
 Alpha virt. eigenvalues --    2.61153   2.64126   2.68329   2.71898   2.73263
 Alpha virt. eigenvalues --    2.76309   2.78780   2.81840   2.94680   2.99731
 Alpha virt. eigenvalues --    3.01877   3.09943   3.11452   3.15940   3.17851
 Alpha virt. eigenvalues --    3.24294   3.27127   3.35294   3.59310   3.74887
          Condensed to atoms (all electrons):
 Mulliken charges:
               1
     1  C    0.618688
     2  C   -0.108865
     3  S    0.374477
     4  S    0.297086
     5  C    1.040477
     6  C    1.130718
     7  C    0.787851
     8  N   -1.083450
     9  S    0.557559
    10  C   -1.129379
    11  N   -0.167953
    12  C   -1.100397
    13  N   -0.180439
    14  C   -0.853318
    15  N   -0.183055
 Sum of Mulliken charges =  -0.00000
 Mulliken charges with hydrogens summed into heavy atoms:
               1
     1  C    0.618688
     2  C   -0.108865
     3  S    0.374477
     4  S    0.297086
     5  C    1.040477
     6  C    1.130718
     7  C    0.787851
     8  N   -1.083450
     9  S    0.557559
    10  C   -1.129379
    11  N   -0.167953
    12  C   -1.100397
    13  N   -0.180439
    14  C   -0.853318
    15  N   -0.183055
 Electronic spatial extent (au):  <R**2>=           4013.7192
 Charge=             -0.0000 electrons
 Dipole moment (field-independent basis, Debye):
    X=              3.9834    Y=             -2.0006    Z=             -1.4431  Tot=              4.6854

 Test job not archived.
 1\1\GINC-CHIMERA-NODE43\SP\RM05\Gen\C8N4S3\CONNORNM\19-Jan-2019\0\\#T 
 M05/Gen test Massage SCF=(fermi,maxcyc=60)\\M05 opt\\0,1\C,0,0.822118,
 0.32399544,-0.51015473\C,0,0.75399654,-1.09119508,-0.37442742\S,0,0.18
 033289,1.48363618,0.64390847\S,0,-0.02637976,-1.92178922,0.98045802\C,
 0,-1.22485851,0.58913152,1.25170828\C,0,-1.30326132,-0.76130096,1.3852
 3417\C,0,1.53120736,0.64736913,-1.64941982\N,0,1.33744581,-1.81429311,
 -1.29886033\S,0,2.06004332,-0.81441646,-2.41645436\C,0,-2.2987618,1.43
 741839,1.64949058\N,0,-3.13712247,2.17052854,1.98249798\C,0,-2.4666588
 1,-1.37974532,1.93110483\N,0,-3.3819036,-1.9238034,2.39720989\C,0,1.84
 500044,1.93251881,-2.1544868\N,0,2.11955452,2.97937111,-2.57853426\\Ve
 rsion=AS64L-G09RevD.01\HF=-1724.761475\RMSD=5.167e-09\Dipole=1.5671974
 ,-0.7870963,-0.5677616\Quadrupole=-3.1817816,-2.9651367,6.1469184,-3.1
 691608,8.8065364,4.7818839\PG=C01 [X(C8N4S3)]\\@


 THE SOLUTION TO A PROBLEM CHANGES THE PROBLEM.

                                 -- JOHN PEERS
           PAUL DICKSON'S "THE OFFICIAL RULES"
 Job cpu time:       0 days  1 hours 55 minutes 34.2 seconds.
 File lengths (MBytes):  RWF=     58 Int=      0 D2E=      0 Chk=      6 Scr=      1
 Normal termination of Gaussian 09 at Sat Jan 19 10:51:09 2019.
