 Entering Gaussian System, Link 0=/data/szalewicgrp/connornm/opt/Gaussian/g09-M05-par/g09/g09
 AtFile(1): blind-aug.gbs
 Initial command:
 /data/szalewicgrp/connornm/opt/Gaussian/g09-M05-par/g09/l1.exe "/scratch/local/Gau-47472.inp" -scrdir="/scratch/local/"
 Entering Link 1 = /data/szalewicgrp/connornm/opt/Gaussian/g09-M05-par/g09/l1.exe PID=     47473.
  
 Copyright (c) 1988,1990,1992,1993,1995,1998,2003,2009,2013,
            Gaussian, Inc.  All Rights Reserved.
  
 This is part of the Gaussian(R) 09 program.  It is based on
 the Gaussian(R) 03 system (copyright 2003, Gaussian, Inc.),
 the Gaussian(R) 98 system (copyright 1998, Gaussian, Inc.),
 the Gaussian(R) 94 system (copyright 1995, Gaussian, Inc.),
 the Gaussian 92(TM) system (copyright 1992, Gaussian, Inc.),
 the Gaussian 90(TM) system (copyright 1990, Gaussian, Inc.),
 the Gaussian 88(TM) system (copyright 1988, Gaussian, Inc.),
 the Gaussian 86(TM) system (copyright 1986, Carnegie Mellon
 University), and the Gaussian 82(TM) system (copyright 1983,
 Carnegie Mellon University). Gaussian is a federally registered
 trademark of Gaussian, Inc.
  
 This software contains proprietary and confidential information,
 including trade secrets, belonging to Gaussian, Inc.
  
 This software is provided under written license and may be
 used, copied, transmitted, or stored only in accord with that
 written license.
  
 The following legend is applicable only to US Government
 contracts under FAR:
  
                    RESTRICTED RIGHTS LEGEND
  
 Use, reproduction and disclosure by the US Government is
 subject to restrictions as set forth in subparagraphs (a)
 and (c) of the Commercial Computer Software - Restricted
 Rights clause in FAR 52.227-19.
  
 Gaussian, Inc.
 340 Quinnipiac St., Bldg. 40, Wallingford CT 06492
  
  
 ---------------------------------------------------------------
 Warning -- This program may not be used in any manner that
 competes with the business of Gaussian, Inc. or will provide
 assistance to any competitor of Gaussian, Inc.  The licensee
 of this program is prohibited from giving any competitor of
 Gaussian, Inc. access to this program.  By using this program,
 the user acknowledges that Gaussian, Inc. is engaged in the
 business of creating and licensing software in the field of
 computational chemistry and represents and warrants to the
 licensee that it is not a competitor of Gaussian, Inc. and that
 it will not use this program in any manner prohibited above.
 ---------------------------------------------------------------
  

 Cite this work as:
 Gaussian 09, Revision D.01,
 M. J. Frisch, G. W. Trucks, H. B. Schlegel, G. E. Scuseria, 
 M. A. Robb, J. R. Cheeseman, G. Scalmani, V. Barone, B. Mennucci, 
 G. A. Petersson, H. Nakatsuji, M. Caricato, X. Li, H. P. Hratchian, 
 A. F. Izmaylov, J. Bloino, G. Zheng, J. L. Sonnenberg, M. Hada, 
 M. Ehara, K. Toyota, R. Fukuda, J. Hasegawa, M. Ishida, T. Nakajima, 
 Y. Honda, O. Kitao, H. Nakai, T. Vreven, J. A. Montgomery, Jr., 
 J. E. Peralta, F. Ogliaro, M. Bearpark, J. J. Heyd, E. Brothers, 
 K. N. Kudin, V. N. Staroverov, T. Keith, R. Kobayashi, J. Normand, 
 K. Raghavachari, A. Rendell, J. C. Burant, S. S. Iyengar, J. Tomasi, 
 M. Cossi, N. Rega, J. M. Millam, M. Klene, J. E. Knox, J. B. Cross, 
 V. Bakken, C. Adamo, J. Jaramillo, R. Gomperts, R. E. Stratmann, 
 O. Yazyev, A. J. Austin, R. Cammi, C. Pomelli, J. W. Ochterski, 
 R. L. Martin, K. Morokuma, V. G. Zakrzewski, G. A. Voth, 
 P. Salvador, J. J. Dannenberg, S. Dapprich, A. D. Daniels, 
 O. Farkas, J. B. Foresman, J. V. Ortiz, J. Cioslowski, 
 and D. J. Fox, Gaussian, Inc., Wallingford CT, 2013.
 
 ******************************************
 Gaussian 09:  AS64L-G09RevD.01 24-Apr-2013
                20-Jan-2019 
 ******************************************
 %Chk=BLIND01978
 %Mem=1GB
 %NProcShared=48
 Will use up to   48 processors via shared memory.
 ---------------------------------------------
 #T M05/Gen test Massage SCF=(fermi,maxcyc=60)
 ---------------------------------------------
 -------
 M05 opt
 -------
 Symbolic Z-matrix:
 Charge =  0 Multiplicity = 1
 6                    -0.34575  -0.29915  -0.91218 
 6                     0.40769  -1.29611  -0.23085 
 16                   -0.09984   1.43449  -0.76197 
 16                    1.7094   -0.94495   0.91668 
 6                     0.42827   1.53965   0.92746 
 6                     1.1468    0.59493   1.58992 
 6                    -1.2507   -0.90169  -1.76266 
 7                     0.13453  -2.5489   -0.50248 
 16                   -1.06341  -2.62168  -1.65598 
 6                     0.06266   2.76714   1.55252 
 7                    -0.23692   3.7923    2.01131 
 6                     1.56294   0.79943   2.93861 
 7                     1.94784   0.93572   4.02682 
 6                    -2.18368  -0.28672  -2.63246 
 7                    -2.94888   0.20108  -3.35882 
 6                    -0.34575   0.29915   4.88809 
 6                     0.40769   1.29611   5.56942 
 16                   -0.09984  -1.43449   5.0383 
 16                    1.7094    0.94495   6.71695 
 6                     0.42827  -1.53965   6.72773 
 6                     1.1468   -0.59493   7.39019 
 6                    -1.2507    0.90169   4.03761 
 7                     0.13453   2.5489    5.29779 
 16                   -1.06341   2.62168   4.14429 
 6                     0.06266  -2.76714   7.35279 
 7                    -0.23692  -3.7923    7.81158 
 6                     1.56294  -0.79943   8.73888 
 7                     1.94784  -0.93572   9.82709 
 6                    -2.18368   0.28672   3.16781 
 7                    -2.94888  -0.20108   2.44145 
 
                    Distance matrix (angstroms):
                    1          2          3          4          5
     1  C    0.000000
     2  C    1.423315   0.000000
     3  S    1.757418   2.827694   0.000000
     4  S    2.825849   1.770477   3.428253   0.000000
     5  C    2.713774   3.063280   1.773167   2.795470   0.000000
     6  C    3.047557   2.727187   2.791121   1.772288   1.359281
     7  C    1.380327   2.291783   2.789903   3.992857   4.001979
     8  N    2.336642   1.310672   3.998700   2.658358   4.341342
     9  S    2.542129   2.439721   4.263822   4.137445   5.120151
    10  C    3.955208   4.450782   2.675676   4.110426   1.425163
    11  N    5.029770   5.597745   3.642685   5.237162   2.586817
    12  C    4.436049   3.971317   4.106384   2.674416   2.424897
    13  N    5.583831   5.047859   5.232040   3.642352   3.504263
    14  C    2.517432   3.674472   3.286888   5.309014   4.778168
    15  N    3.607292   4.826214   4.047461   6.425950   5.618639
    16  C    5.831045   5.414429   5.768241   4.641497   4.221916
    17  C    6.717418   6.353171   6.353206   5.325864   4.648395
    18  S    6.062815   5.295345   6.471022   4.527778   5.101320
    19  S    7.998440   7.415437   7.710202   6.100397   5.959294
    20  C    7.778571   6.962866   8.075886   5.980236   6.566984
    21  C    8.440652   7.688836   8.492960   6.507334   6.843953
    22  C    5.173136   5.079397   4.964297   4.681069   3.591513
    23  N    6.848779   6.739775   6.165834   5.820763   4.494960
    24  S    5.883380   6.054342   5.138993   5.552184   3.707277
    25  C    8.635254   7.732696   9.139442   6.888809   7.743842
    26  N    9.397766   8.445540  10.042103   7.709425   8.732891
    27  C    9.850701   9.057444   9.900570   7.824923   8.232684
    28  N   10.999894  10.181553  11.042599   8.913602   9.361624
    29  C    4.513047   4.557571   4.593791   4.662687   3.662147
    30  N    4.246503   4.427964   4.588465   4.957606   4.089929
                    6          7          8          9         10
     6  C    0.000000
     7  C    4.384939   0.000000
     8  N    3.909794   2.494036   0.000000
     9  S    5.076167   1.733444   1.664607   0.000000
    10  C    2.428007   5.116215   5.699860   6.371958   0.000000
    11  N    3.509330   6.107712   6.831389   7.434461   1.162408
    12  C    1.426163   5.736923   5.009263   6.301738   2.836178
    13  N    2.587713   6.864751   5.995430   7.349618   3.609722
    14  C    5.449573   1.416040   3.876636   2.767765   5.646781
    15  N    6.435818   2.578302   5.022796   3.797715   6.306769
    16  C    3.632229   6.818609   6.115575   7.202158   4.169382
    17  C    4.107841   7.831989   7.192129   8.349829   4.291667
    18  S    4.190940   6.918199   5.656599   6.866680   5.461746
    19  S    5.169665   9.169300   8.173574   9.513949   5.718687
    20  C    5.609792   8.678287   7.306213   8.583846   6.742761
    21  C    5.921056   9.466618   8.193714   9.530265   6.823284
    22  C    3.439948   6.074150   5.868371   6.698217   3.373490
    23  N    4.311722   7.979686   7.722087   8.747846   3.752306
    24  S    3.939227   6.880501   7.054245   7.818946   2.829565
    25  C    6.759404   9.396616   7.858635   9.080045   8.016937
    26  N    7.737668  10.052341   8.414729   9.575394   9.071478
    27  C    7.295545  10.872413   9.513342  10.875262   8.161794
    28  N    8.416380  12.023066  10.610862  11.990450   9.259235
    29  C    3.698216   5.156781   5.185161   5.743065   3.715864
    30  N    4.258328   4.587951   4.866871   5.118913   4.320868
                   11         12         13         14         15
    11  N    0.000000
    12  C    3.613393   0.000000
    13  N    4.122555   1.162293   0.000000
    14  C    6.480188   6.800997   7.931563   0.000000
    15  N    7.006418   7.769948   8.891861   1.162367   0.000000
    16  C    4.526565   2.773776   2.531318   7.764005   8.648547
    17  C    4.393927   2.915900   2.209430   8.745931   9.600995
    18  S    6.041583   3.487683   3.291504   8.031203   9.016857
    19  S    5.834258   3.783978   2.700695  10.202175  11.125376
    20  C    7.149599   4.595237   3.966294   9.798219  10.778390
    21  C    7.077769   4.683377   3.781119  10.566007  11.530371
    22  C    3.672770   3.022380   3.198736   6.839041   7.621139
    23  N    3.533406   3.265992   2.739670   8.735193   9.484542
    24  S    2.569636   3.416421   3.453095   7.459093   8.106228
    25  C    8.464476   5.869945   5.322328  10.531082  11.516004
    26  N    9.548258   6.933204   6.438306  11.187351  12.168798
    27  C    8.341678   6.016601   5.036112  11.983621  12.950357
    28  N    9.392214   7.114074   6.094705  13.142709  14.111636
    29  C    4.173299   3.788469   4.269486   5.828548   6.571895
    30  N    4.846323   4.648085   5.271015   5.131999   5.814195
                   16         17         18         19         20
    16  C    0.000000
    17  C    1.423315   0.000000
    18  S    1.757418   2.827694   0.000000
    19  S    2.825849   1.770477   3.428253   0.000000
    20  C    2.713774   3.063280   1.773167   2.795470   0.000000
    21  C    3.047557   2.727187   2.791121   1.772288   1.359281
    22  C    1.380327   2.291783   2.789903   3.992857   4.001979
    23  N    2.336642   1.310672   3.998700   2.658358   4.341342
    24  S    2.542129   2.439721   4.263822   4.137445   5.120151
    25  C    3.955208   4.450782   2.675676   4.110426   1.425163
    26  N    5.029770   5.597745   3.642685   5.237162   2.586817
    27  C    4.436049   3.971317   4.106384   2.674416   2.424897
    28  N    5.583831   5.047859   5.232040   3.642352   3.504263
    29  C    2.517432   3.674472   3.286888   5.309014   4.778168
    30  N    3.607292   4.826214   4.047461   6.425950   5.618639
                   21         22         23         24         25
    21  C    0.000000
    22  C    4.384939   0.000000
    23  N    3.909794   2.494036   0.000000
    24  S    5.076167   1.733444   1.664607   0.000000
    25  C    2.428007   5.116215   5.699860   6.371958   0.000000
    26  N    3.509330   6.107712   6.831389   7.434461   1.162408
    27  C    1.426163   5.736923   5.009263   6.301738   2.836178
    28  N    2.587713   6.864751   5.995430   7.349618   3.609722
    29  C    5.449573   1.416040   3.876636   2.767765   5.646781
    30  N    6.435818   2.578302   5.022796   3.797715   6.306769
                   26         27         28         29         30
    26  N    0.000000
    27  C    3.613393   0.000000
    28  N    4.122555   1.162293   0.000000
    29  C    6.480188   6.800997   7.931563   0.000000
    30  N    7.006418   7.769948   8.891861   1.162367   0.000000
 Symmetry turned off by external request.
 Framework group  C1[X(C16N8S6)]
 Deg. of freedom    84
 Rotational constants (GHZ):      0.2277572      0.0743101      0.0654974
   714 basis functions,  1518 primitive gaussians,   774 cartesian basis functions
   124 alpha electrons      124 beta electrons
       nuclear repulsion energy      3711.9224018233 Hartrees.
 IMHF & INEx in M05                  599485                  400514
 NAtoms=   30 NActive=   30 NUniq=   30 SFac= 1.00D+00 NAtFMM=   60 NAOKFM=F Big=F
 PrsmSu:  requested number of processors reduced to:  25 ShMem   1 Linda.
 ExpMin= 3.99D-02 ExpMax= 1.11D+05 ExpMxC= 1.07D+03 IAcc=3 IRadAn=         5 AccDes= 0.00D+00
 Harris functional with IExCor= 1009 and IRadAn=       5 diagonalized for initial guess.
 HarFok:  IExCor= 1009 AccDes= 0.00D+00 IRadAn=         5 IDoV= 1 UseB2=F ITyADJ=14
 ICtDFT=  3500011 ScaDFX=  1.000000  1.000000  1.000000  1.000000
 FoFCou: FMM=F IPFlag=           0 FMFlag=      100000 FMFlg1=           0
         NFxFlg=           0 DoJE=T BraDBF=F KetDBF=T FulRan=T
         wScrn=  0.000000 ICntrl=     500 IOpCl=  0 I1Cent=   200000004 NGrid=           0
         NMat0=    1 NMatS0=      1 NMatT0=    0 NMatD0=    1 NMtDS0=    0 NMtDT0=    0
 Symmetry not used in FoFCou.
 Restarting incremental Fock formation.
