 Entering Gaussian System, Link 0=/data/szalewicgrp/connornm/opt/Gaussian/g09-M05-par/g09/g09
 AtFile(1): blind-aug.gbs
 Initial command:
 /data/szalewicgrp/connornm/opt/Gaussian/g09-M05-par/g09/l1.exe "/scratch/local/Gau-41271.inp" -scrdir="/scratch/local/"
 Entering Link 1 = /data/szalewicgrp/connornm/opt/Gaussian/g09-M05-par/g09/l1.exe PID=     41272.
  
 Copyright (c) 1988,1990,1992,1993,1995,1998,2003,2009,2013,
            Gaussian, Inc.  All Rights Reserved.
  
 This is part of the Gaussian(R) 09 program.  It is based on
 the Gaussian(R) 03 system (copyright 2003, Gaussian, Inc.),
 the Gaussian(R) 98 system (copyright 1998, Gaussian, Inc.),
 the Gaussian(R) 94 system (copyright 1995, Gaussian, Inc.),
 the Gaussian 92(TM) system (copyright 1992, Gaussian, Inc.),
 the Gaussian 90(TM) system (copyright 1990, Gaussian, Inc.),
 the Gaussian 88(TM) system (copyright 1988, Gaussian, Inc.),
 the Gaussian 86(TM) system (copyright 1986, Carnegie Mellon
 University), and the Gaussian 82(TM) system (copyright 1983,
 Carnegie Mellon University). Gaussian is a federally registered
 trademark of Gaussian, Inc.
  
 This software contains proprietary and confidential information,
 including trade secrets, belonging to Gaussian, Inc.
  
 This software is provided under written license and may be
 used, copied, transmitted, or stored only in accord with that
 written license.
  
 The following legend is applicable only to US Government
 contracts under FAR:
  
                    RESTRICTED RIGHTS LEGEND
  
 Use, reproduction and disclosure by the US Government is
 subject to restrictions as set forth in subparagraphs (a)
 and (c) of the Commercial Computer Software - Restricted
 Rights clause in FAR 52.227-19.
  
 Gaussian, Inc.
 340 Quinnipiac St., Bldg. 40, Wallingford CT 06492
  
  
 ---------------------------------------------------------------
 Warning -- This program may not be used in any manner that
 competes with the business of Gaussian, Inc. or will provide
 assistance to any competitor of Gaussian, Inc.  The licensee
 of this program is prohibited from giving any competitor of
 Gaussian, Inc. access to this program.  By using this program,
 the user acknowledges that Gaussian, Inc. is engaged in the
 business of creating and licensing software in the field of
 computational chemistry and represents and warrants to the
 licensee that it is not a competitor of Gaussian, Inc. and that
 it will not use this program in any manner prohibited above.
 ---------------------------------------------------------------
  

 Cite this work as:
 Gaussian 09, Revision D.01,
 M. J. Frisch, G. W. Trucks, H. B. Schlegel, G. E. Scuseria, 
 M. A. Robb, J. R. Cheeseman, G. Scalmani, V. Barone, B. Mennucci, 
 G. A. Petersson, H. Nakatsuji, M. Caricato, X. Li, H. P. Hratchian, 
 A. F. Izmaylov, J. Bloino, G. Zheng, J. L. Sonnenberg, M. Hada, 
 M. Ehara, K. Toyota, R. Fukuda, J. Hasegawa, M. Ishida, T. Nakajima, 
 Y. Honda, O. Kitao, H. Nakai, T. Vreven, J. A. Montgomery, Jr., 
 J. E. Peralta, F. Ogliaro, M. Bearpark, J. J. Heyd, E. Brothers, 
 K. N. Kudin, V. N. Staroverov, T. Keith, R. Kobayashi, J. Normand, 
 K. Raghavachari, A. Rendell, J. C. Burant, S. S. Iyengar, J. Tomasi, 
 M. Cossi, N. Rega, J. M. Millam, M. Klene, J. E. Knox, J. B. Cross, 
 V. Bakken, C. Adamo, J. Jaramillo, R. Gomperts, R. E. Stratmann, 
 O. Yazyev, A. J. Austin, R. Cammi, C. Pomelli, J. W. Ochterski, 
 R. L. Martin, K. Morokuma, V. G. Zakrzewski, G. A. Voth, 
 P. Salvador, J. J. Dannenberg, S. Dapprich, A. D. Daniels, 
 O. Farkas, J. B. Foresman, J. V. Ortiz, J. Cioslowski, 
 and D. J. Fox, Gaussian, Inc., Wallingford CT, 2013.
 
 ******************************************
 Gaussian 09:  AS64L-G09RevD.01 24-Apr-2013
                19-Jan-2019 
 ******************************************
 %Chk=BLIND02099_mB
 %Mem=1GB
 %NProcShared=48
 Will use up to   48 processors via shared memory.
 ---------------------------------------------
 #T M05/Gen test Massage SCF=(fermi,maxcyc=60)
 ---------------------------------------------
 -------
 M05 opt
 -------
 Symbolic Z-matrix:
 Charge =  0 Multiplicity = 1
 6                    -0.27478  -0.03612   11.07266 
 6                     0.19944  -1.27846   10.5652 
 16                    0.25095   1.54846   10.5238 
 16                    1.38689  -1.4293    9.26066 
 6                     0.5714    1.20694   8.8136 
 6                     1.02311   0.02543   8.31597 
 6                    -1.15661  -0.26462   12.10971 
 7                    -0.25304  -2.37199   11.1285 
 16                   -1.2895   -1.97346   12.3686 
 6                     0.35113   2.33243   7.96752 
 7                     0.18079   3.2839    7.32185 
 6                     1.29478  -0.13046   6.92463 
 7                     1.5569   -0.29355   5.80409 
 6                    -1.84941   0.68451   12.89987 
 7                    -2.4189    1.44964   13.56421 
 
                    Distance matrix (angstroms):
                    1          2          3          4          5
     1  C    0.000000
     2  C    1.423315   0.000000
     3  S    1.757418   2.827694   0.000000
     4  S    2.825849   1.770477   3.428253   0.000000
     5  C    2.713774   3.063280   1.773167   2.795470   0.000000
     6  C    3.047557   2.727187   2.791121   1.772288   1.359281
     7  C    1.380327   2.291783   2.789903   3.992857   4.001979
     8  N    2.336642   1.310672   3.998700   2.658358   4.341342
     9  S    2.542129   2.439721   4.263822   4.137445   5.120151
    10  C    3.955208   4.450782   2.675676   4.110426   1.425163
    11  N    5.029770   5.597745   3.642685   5.237162   2.586817
    12  C    4.436049   3.971317   4.106384   2.674416   2.424897
    13  N    5.583831   5.047859   5.232040   3.642352   3.504263
    14  C    2.517432   3.674472   3.286888   5.309014   4.778168
    15  N    3.607292   4.826214   4.047461   6.425950   5.618639
                    6          7          8          9         10
     6  C    0.000000
     7  C    4.384939   0.000000
     8  N    3.909794   2.494036   0.000000
     9  S    5.076167   1.733444   1.664607   0.000000
    10  C    2.428007   5.116215   5.699860   6.371958   0.000000
    11  N    3.509330   6.107712   6.831389   7.434461   1.162408
    12  C    1.426163   5.736923   5.009263   6.301738   2.836178
    13  N    2.587713   6.864751   5.995430   7.349618   3.609722
    14  C    5.449573   1.416040   3.876636   2.767765   5.646781
    15  N    6.435818   2.578302   5.022796   3.797715   6.306769
                   11         12         13         14         15
    11  N    0.000000
    12  C    3.613393   0.000000
    13  N    4.122555   1.162293   0.000000
    14  C    6.480188   6.800997   7.931563   0.000000
    15  N    7.006418   7.769948   8.891861   1.162367   0.000000
 Symmetry turned off by external request.
 Framework group  C1[X(C8N4S3)]
 Deg. of freedom    39
 Rotational constants (GHZ):      0.7722167      0.3388923      0.2463240
   357 basis functions,   759 primitive gaussians,   387 cartesian basis functions
    62 alpha electrons       62 beta electrons
       nuclear repulsion energy      1166.1400399748 Hartrees.
 IMHF & INEx in M05                  599485                  400514
 NAtoms=   15 NActive=   15 NUniq=   15 SFac= 1.00D+00 NAtFMM=   60 NAOKFM=F Big=F
 PrsmSu:  requested number of processors reduced to:  34 ShMem   1 Linda.
 ExpMin= 3.99D-02 ExpMax= 1.11D+05 ExpMxC= 1.07D+03 IAcc=3 IRadAn=         5 AccDes= 0.00D+00
 Harris functional with IExCor= 1009 and IRadAn=       5 diagonalized for initial guess.
 HarFok:  IExCor= 1009 AccDes= 0.00D+00 IRadAn=         5 IDoV= 1 UseB2=F ITyADJ=14
 ICtDFT=  3500011 ScaDFX=  1.000000  1.000000  1.000000  1.000000
 FoFCou: FMM=F IPFlag=           0 FMFlag=      100000 FMFlg1=           0
         NFxFlg=           0 DoJE=T BraDBF=F KetDBF=T FulRan=T
         wScrn=  0.000000 ICntrl=     500 IOpCl=  0 I1Cent=   200000004 NGrid=           0
         NMat0=    1 NMatS0=      1 NMatT0=    0 NMatD0=    1 NMtDS0=    0 NMtDT0=    0
 Symmetry not used in FoFCou.
 SCF Done:  E(RM05) =  -1724.76147757     A.U. after   17 cycles
            NFock= 17  Conv=0.51D-08     -V/T= 2.0061

 **********************************************************************

            Population analysis using the SCF density.

 **********************************************************************

 Alpha  occ. eigenvalues --  -90.56430 -90.53638 -90.53182 -15.08622 -15.05416
 Alpha  occ. eigenvalues --  -15.04968 -15.04934 -10.89945 -10.89827 -10.89736
 Alpha  occ. eigenvalues --  -10.88752 -10.87414 -10.84946 -10.84331 -10.84311
 Alpha  occ. eigenvalues --   -8.57525  -8.55037  -8.54609  -6.40062  -6.39712
 Alpha  occ. eigenvalues --   -6.39400  -6.37599  -6.37284  -6.37163  -6.36853
 Alpha  occ. eigenvalues --   -6.36824  -6.36392  -1.20533  -1.12895  -1.12139
 Alpha  occ. eigenvalues --   -1.11337  -1.07643  -1.03801  -0.98824  -0.97396
 Alpha  occ. eigenvalues --   -0.88003  -0.84555  -0.82236  -0.73687  -0.71296
 Alpha  occ. eigenvalues --   -0.67838  -0.64612  -0.59530  -0.57258  -0.55386
 Alpha  occ. eigenvalues --   -0.53385  -0.52648  -0.52243  -0.51890  -0.50883
 Alpha  occ. eigenvalues --   -0.50387  -0.49356  -0.48215  -0.46805  -0.46074
 Alpha  occ. eigenvalues --   -0.45933  -0.45296  -0.43720  -0.43113  -0.39488
 Alpha  occ. eigenvalues --   -0.37628  -0.33120
 Alpha virt. eigenvalues --   -0.09329  -0.08269  -0.02099  -0.01263  -0.00504
 Alpha virt. eigenvalues --   -0.00361   0.00153   0.01255   0.02021   0.02229
 Alpha virt. eigenvalues --    0.02394   0.02956   0.03189   0.04002   0.04278
 Alpha virt. eigenvalues --    0.04487   0.05428   0.06005   0.06298   0.07067
 Alpha virt. eigenvalues --    0.07272   0.07527   0.07707   0.08289   0.08492
 Alpha virt. eigenvalues --    0.09375   0.10093   0.10392   0.10524   0.10814
 Alpha virt. eigenvalues --    0.11286   0.11391   0.11977   0.12527   0.13230
 Alpha virt. eigenvalues --    0.13491   0.13934   0.14454   0.15077   0.15192
 Alpha virt. eigenvalues --    0.15906   0.16272   0.16676   0.16812   0.17193
 Alpha virt. eigenvalues --    0.17359   0.17837   0.18611   0.19049   0.19564
 Alpha virt. eigenvalues --    0.19859   0.20240   0.20683   0.20942   0.21269
 Alpha virt. eigenvalues --    0.21885   0.22209   0.22580   0.22825   0.23613
 Alpha virt. eigenvalues --    0.23746   0.24121   0.24365   0.24703   0.25257
 Alpha virt. eigenvalues --    0.25696   0.25847   0.26224   0.26622   0.26752
 Alpha virt. eigenvalues --    0.27071   0.28335   0.29197   0.29664   0.30370
 Alpha virt. eigenvalues --    0.30713   0.32420   0.33456   0.34154   0.34715
 Alpha virt. eigenvalues --    0.34950   0.35473   0.36120   0.36936   0.37593
 Alpha virt. eigenvalues --    0.38151   0.39578   0.40728   0.41168   0.42049
 Alpha virt. eigenvalues --    0.42119   0.43484   0.44136   0.45735   0.45986
 Alpha virt. eigenvalues --    0.46964   0.48550   0.49571   0.50231   0.50595
 Alpha virt. eigenvalues --    0.51524   0.51856   0.53528   0.54167   0.54427
 Alpha virt. eigenvalues --    0.54703   0.55466   0.55732   0.55838   0.56452
 Alpha virt. eigenvalues --    0.57776   0.58140   0.58555   0.59218   0.60312
 Alpha virt. eigenvalues --    0.60554   0.61099   0.61585   0.62104   0.62706
 Alpha virt. eigenvalues --    0.63713   0.64716   0.64956   0.66006   0.66557
 Alpha virt. eigenvalues --    0.67686   0.68192   0.68807   0.70109   0.70415
 Alpha virt. eigenvalues --    0.71047   0.72861   0.73471   0.73855   0.75370
 Alpha virt. eigenvalues --    0.75565   0.76457   0.77063   0.77551   0.77842
 Alpha virt. eigenvalues --    0.78245   0.79254   0.79759   0.79875   0.81107
 Alpha virt. eigenvalues --    0.81537   0.82549   0.83278   0.83959   0.84871
 Alpha virt. eigenvalues --    0.85698   0.85940   0.87123   0.87251   0.88406
 Alpha virt. eigenvalues --    0.88460   0.89344   0.89662   0.89831   0.90734
 Alpha virt. eigenvalues --    0.91172   0.91722   0.92830   0.93720   0.94370
 Alpha virt. eigenvalues --    0.95432   0.95564   0.97323   0.98745   0.99312
 Alpha virt. eigenvalues --    0.99850   1.01205   1.02845   1.03577   1.04754
 Alpha virt. eigenvalues --    1.05757   1.06747   1.08039   1.08541   1.09637
 Alpha virt. eigenvalues --    1.10235   1.11402   1.13199   1.13609   1.14404
 Alpha virt. eigenvalues --    1.15325   1.17099   1.18344   1.20284   1.20632
 Alpha virt. eigenvalues --    1.21612   1.22701   1.23938   1.24223   1.26563
 Alpha virt. eigenvalues --    1.27345   1.29757   1.30252   1.32267   1.34127
 Alpha virt. eigenvalues --    1.37310   1.40085   1.40259   1.41567   1.42729
 Alpha virt. eigenvalues --    1.43617   1.45024   1.46464   1.47272   1.49371
 Alpha virt. eigenvalues --    1.49823   1.50474   1.51645   1.51868   1.52336
 Alpha virt. eigenvalues --    1.53715   1.54193   1.55430   1.56136   1.56448
 Alpha virt. eigenvalues --    1.56793   1.58489   1.59727   1.60388   1.60518
 Alpha virt. eigenvalues --    1.62129   1.63280   1.64920   1.66028   1.67546
 Alpha virt. eigenvalues --    1.68614   1.69175   1.70470   1.71325   1.74149
 Alpha virt. eigenvalues --    1.76826   1.77077   1.79017   1.79377   1.81042
 Alpha virt. eigenvalues --    1.82956   1.85919   1.88150   1.89701   1.90607
 Alpha virt. eigenvalues --    1.91369   1.94486   1.95005   1.97393   2.00537
 Alpha virt. eigenvalues --    2.00826   2.05447   2.07036   2.08349   2.08472
 Alpha virt. eigenvalues --    2.10897   2.13937   2.18606   2.20230   2.24593
 Alpha virt. eigenvalues --    2.27643   2.30685   2.37025   2.37401   2.38001
 Alpha virt. eigenvalues --    2.38279   2.39371   2.39930   2.40471   2.42149
 Alpha virt. eigenvalues --    2.42557   2.43756   2.45056   2.51014   2.54995
 Alpha virt. eigenvalues --    2.61157   2.64135   2.68330   2.71897   2.73263
 Alpha virt. eigenvalues --    2.76308   2.78780   2.81841   2.94680   2.99730
 Alpha virt. eigenvalues --    3.01874   3.09941   3.11449   3.15940   3.17851
 Alpha virt. eigenvalues --    3.24293   3.27128   3.35293   3.59307   3.74896
          Condensed to atoms (all electrons):
 Mulliken charges:
               1
     1  C    0.619098
     2  C   -0.108682
     3  S    0.374494
     4  S    0.296386
     5  C    1.038906
     6  C    1.131133
     7  C    0.787462
     8  N   -1.083286
     9  S    0.557348
    10  C   -1.129085
    11  N   -0.167836
    12  C   -1.099464
    13  N   -0.180621
    14  C   -0.852862
    15  N   -0.182990
 Sum of Mulliken charges =  -0.00000
 Mulliken charges with hydrogens summed into heavy atoms:
               1
     1  C    0.619098
     2  C   -0.108682
     3  S    0.374494
     4  S    0.296386
     5  C    1.038906
     6  C    1.131133
     7  C    0.787462
     8  N   -1.083286
     9  S    0.557348
    10  C   -1.129085
    11  N   -0.167836
    12  C   -1.099464
    13  N   -0.180621
    14  C   -0.852862
    15  N   -0.182990
 Electronic spatial extent (au):  <R**2>=          49046.1084
 Charge=             -0.0000 electrons
 Dipole moment (field-independent basis, Debye):
    X=              0.5435    Y=             -3.1095    Z=              3.4624  Tot=              4.6854

 Test job not archived.
 1\1\GINC-CHIMERA-NODE43\SP\RM05\Gen\C8N4S3\CONNORNM\19-Jan-2019\0\\#T 
 M05/Gen test Massage SCF=(fermi,maxcyc=60)\\M05 opt\\0,1\C,0,-0.274776
 79,-0.03611518,11.07265896\C,0,0.19944383,-1.27846054,10.56519521\S,0,
 0.25095256,1.54846138,10.52380341\S,0,1.38689289,-1.42929551,9.2606639
 2\C,0,0.57140386,1.20694453,8.81359895\C,0,1.02310911,0.0254301,8.3159
 7454\C,0,-1.1566055,-0.26461581,12.10970708\N,0,-0.25303666,-2.3719888
 6,11.1285044\S,0,-1.28950013,-1.97345777,12.36859848\C,0,0.35113142,2.
 33242872,7.96751676\N,0,0.18079441,3.28389964,7.32185323\C,0,1.2947766
 6,-0.13046201,6.92463118\N,0,1.55690355,-0.29355342,5.80408809\C,0,-1.
 84940937,0.68450688,12.89986993\N,0,-2.41890313,1.4496414,13.56420565\
 \Version=AS64L-G09RevD.01\HF=-1724.7614776\RMSD=5.122e-09\Dipole=0.213
 8272,-1.2233861,1.3622317\Quadrupole=-9.2733505,-16.2764816,25.5498321
 ,4.6773077,10.5804214,-24.0303426\PG=C01 [X(C8N4S3)]\\@


 I WANT IT ALL - RICH, THIN, AND CHOCOLATE.
 Job cpu time:       0 days  1 hours 54 minutes 35.5 seconds.
 File lengths (MBytes):  RWF=     58 Int=      0 D2E=      0 Chk=      6 Scr=      1
 Normal termination of Gaussian 09 at Sat Jan 19 10:48:30 2019.
