 Entering Gaussian System, Link 0=/data/szalewicgrp/connornm/opt/Gaussian/g09-M05-par/g09/g09
 AtFile(1): blind-aug.gbs
 Initial command:
 /data/szalewicgrp/connornm/opt/Gaussian/g09-M05-par/g09/l1.exe "/scratch/local/Gau-29754.inp" -scrdir="/scratch/local/"
 Entering Link 1 = /data/szalewicgrp/connornm/opt/Gaussian/g09-M05-par/g09/l1.exe PID=     29755.
  
 Copyright (c) 1988,1990,1992,1993,1995,1998,2003,2009,2013,
            Gaussian, Inc.  All Rights Reserved.
  
 This is part of the Gaussian(R) 09 program.  It is based on
 the Gaussian(R) 03 system (copyright 2003, Gaussian, Inc.),
 the Gaussian(R) 98 system (copyright 1998, Gaussian, Inc.),
 the Gaussian(R) 94 system (copyright 1995, Gaussian, Inc.),
 the Gaussian 92(TM) system (copyright 1992, Gaussian, Inc.),
 the Gaussian 90(TM) system (copyright 1990, Gaussian, Inc.),
 the Gaussian 88(TM) system (copyright 1988, Gaussian, Inc.),
 the Gaussian 86(TM) system (copyright 1986, Carnegie Mellon
 University), and the Gaussian 82(TM) system (copyright 1983,
 Carnegie Mellon University). Gaussian is a federally registered
 trademark of Gaussian, Inc.
  
 This software contains proprietary and confidential information,
 including trade secrets, belonging to Gaussian, Inc.
  
 This software is provided under written license and may be
 used, copied, transmitted, or stored only in accord with that
 written license.
  
 The following legend is applicable only to US Government
 contracts under FAR:
  
                    RESTRICTED RIGHTS LEGEND
  
 Use, reproduction and disclosure by the US Government is
 subject to restrictions as set forth in subparagraphs (a)
 and (c) of the Commercial Computer Software - Restricted
 Rights clause in FAR 52.227-19.
  
 Gaussian, Inc.
 340 Quinnipiac St., Bldg. 40, Wallingford CT 06492
  
  
 ---------------------------------------------------------------
 Warning -- This program may not be used in any manner that
 competes with the business of Gaussian, Inc. or will provide
 assistance to any competitor of Gaussian, Inc.  The licensee
 of this program is prohibited from giving any competitor of
 Gaussian, Inc. access to this program.  By using this program,
 the user acknowledges that Gaussian, Inc. is engaged in the
 business of creating and licensing software in the field of
 computational chemistry and represents and warrants to the
 licensee that it is not a competitor of Gaussian, Inc. and that
 it will not use this program in any manner prohibited above.
 ---------------------------------------------------------------
  

 Cite this work as:
 Gaussian 09, Revision D.01,
 M. J. Frisch, G. W. Trucks, H. B. Schlegel, G. E. Scuseria, 
 M. A. Robb, J. R. Cheeseman, G. Scalmani, V. Barone, B. Mennucci, 
 G. A. Petersson, H. Nakatsuji, M. Caricato, X. Li, H. P. Hratchian, 
 A. F. Izmaylov, J. Bloino, G. Zheng, J. L. Sonnenberg, M. Hada, 
 M. Ehara, K. Toyota, R. Fukuda, J. Hasegawa, M. Ishida, T. Nakajima, 
 Y. Honda, O. Kitao, H. Nakai, T. Vreven, J. A. Montgomery, Jr., 
 J. E. Peralta, F. Ogliaro, M. Bearpark, J. J. Heyd, E. Brothers, 
 K. N. Kudin, V. N. Staroverov, T. Keith, R. Kobayashi, J. Normand, 
 K. Raghavachari, A. Rendell, J. C. Burant, S. S. Iyengar, J. Tomasi, 
 M. Cossi, N. Rega, J. M. Millam, M. Klene, J. E. Knox, J. B. Cross, 
 V. Bakken, C. Adamo, J. Jaramillo, R. Gomperts, R. E. Stratmann, 
 O. Yazyev, A. J. Austin, R. Cammi, C. Pomelli, J. W. Ochterski, 
 R. L. Martin, K. Morokuma, V. G. Zakrzewski, G. A. Voth, 
 P. Salvador, J. J. Dannenberg, S. Dapprich, A. D. Daniels, 
 O. Farkas, J. B. Foresman, J. V. Ortiz, J. Cioslowski, 
 and D. J. Fox, Gaussian, Inc., Wallingford CT, 2013.
 
 ******************************************
 Gaussian 09:  AS64L-G09RevD.01 24-Apr-2013
                19-Jan-2019 
 ******************************************
 %Chk=BLIND00114_mB
 %Mem=1GB
 %NProcShared=48
 Will use up to   48 processors via shared memory.
 ---------------------------------------------
 #T M05/Gen test Massage SCF=(fermi,maxcyc=60)
 ---------------------------------------------
 -------
 M05 opt
 -------
 Symbolic Z-matrix:
 Charge =  0 Multiplicity = 1
 6                     0.50958   0.87976   7.49944 
 6                    -0.63777   0.79853   6.6611 
 16                    0.67968   0.09265   9.0615 
 16                   -2.08421  -0.14654   7.0474 
 6                    -0.27476  -1.3764    8.7875 
 6                    -1.37113  -1.46772   7.9892 
 6                     1.43946   1.72787   6.93257 
 7                    -0.62497   1.49728   5.5523 
 16                    0.79834   2.35426   5.44885 
 6                     0.19142  -2.49456   9.53816 
 7                     0.59395  -3.37053   10.18766 
 6                    -2.09738  -2.68976   7.87467 
 7                    -2.73597  -3.65567   7.77399 
 6                     2.71035   2.10033   7.43386 
 7                     3.75228   2.42413   7.83463 
 
                    Distance matrix (angstroms):
                    1          2          3          4          5
     1  C    0.000000
     2  C    1.423315   0.000000
     3  S    1.757418   2.827694   0.000000
     4  S    2.825849   1.770477   3.428253   0.000000
     5  C    2.713774   3.063280   1.773167   2.795470   0.000000
     6  C    3.047557   2.727187   2.791121   1.772288   1.359281
     7  C    1.380327   2.291783   2.789903   3.992857   4.001979
     8  N    2.336642   1.310672   3.998700   2.658358   4.341342
     9  S    2.542129   2.439721   4.263822   4.137445   5.120151
    10  C    3.955208   4.450782   2.675676   4.110426   1.425163
    11  N    5.029770   5.597745   3.642685   5.237162   2.586817
    12  C    4.436049   3.971317   4.106384   2.674416   2.424897
    13  N    5.583831   5.047859   5.232040   3.642352   3.504263
    14  C    2.517432   3.674472   3.286888   5.309014   4.778168
    15  N    3.607292   4.826214   4.047461   6.425950   5.618639
                    6          7          8          9         10
     6  C    0.000000
     7  C    4.384939   0.000000
     8  N    3.909794   2.494036   0.000000
     9  S    5.076167   1.733444   1.664607   0.000000
    10  C    2.428007   5.116215   5.699860   6.371958   0.000000
    11  N    3.509330   6.107712   6.831389   7.434461   1.162408
    12  C    1.426163   5.736923   5.009263   6.301738   2.836178
    13  N    2.587713   6.864750   5.995430   7.349618   3.609722
    14  C    5.449573   1.416040   3.876636   2.767765   5.646781
    15  N    6.435818   2.578302   5.022796   3.797715   6.306769
                   11         12         13         14         15
    11  N    0.000000
    12  C    3.613393   0.000000
    13  N    4.122555   1.162293   0.000000
    14  C    6.480188   6.800997   7.931563   0.000000
    15  N    7.006418   7.769948   8.891861   1.162367   0.000000
 Symmetry turned off by external request.
 Framework group  C1[X(C8N4S3)]
 Deg. of freedom    39
 Rotational constants (GHZ):      0.7722167      0.3388923      0.2463240
   357 basis functions,   759 primitive gaussians,   387 cartesian basis functions
    62 alpha electrons       62 beta electrons
       nuclear repulsion energy      1166.1400397069 Hartrees.
 IMHF & INEx in M05                  599485                  400514
 NAtoms=   15 NActive=   15 NUniq=   15 SFac= 1.00D+00 NAtFMM=   60 NAOKFM=F Big=F
 PrsmSu:  requested number of processors reduced to:  34 ShMem   1 Linda.
 ExpMin= 3.99D-02 ExpMax= 1.11D+05 ExpMxC= 1.07D+03 IAcc=3 IRadAn=         5 AccDes= 0.00D+00
 Harris functional with IExCor= 1009 and IRadAn=       5 diagonalized for initial guess.
 HarFok:  IExCor= 1009 AccDes= 0.00D+00 IRadAn=         5 IDoV= 1 UseB2=F ITyADJ=14
 ICtDFT=  3500011 ScaDFX=  1.000000  1.000000  1.000000  1.000000
 FoFCou: FMM=F IPFlag=           0 FMFlag=      100000 FMFlg1=           0
         NFxFlg=           0 DoJE=T BraDBF=F KetDBF=T FulRan=T
         wScrn=  0.000000 ICntrl=     500 IOpCl=  0 I1Cent=   200000004 NGrid=           0
         NMat0=    1 NMatS0=      1 NMatT0=    0 NMatD0=    1 NMtDS0=    0 NMtDT0=    0
 Symmetry not used in FoFCou.
 SCF Done:  E(RM05) =  -1724.76146336     A.U. after   17 cycles
            NFock= 17  Conv=0.51D-08     -V/T= 2.0061

 **********************************************************************

            Population analysis using the SCF density.

 **********************************************************************

 Alpha  occ. eigenvalues --  -90.56430 -90.53636 -90.53181 -15.08621 -15.05416
 Alpha  occ. eigenvalues --  -15.04969 -15.04934 -10.89945 -10.89827 -10.89735
 Alpha  occ. eigenvalues --  -10.88752 -10.87414 -10.84946 -10.84332 -10.84311
 Alpha  occ. eigenvalues --   -8.57526  -8.55035  -8.54609  -6.40063  -6.39712
 Alpha  occ. eigenvalues --   -6.39401  -6.37597  -6.37282  -6.37162  -6.36853
 Alpha  occ. eigenvalues --   -6.36822  -6.36392  -1.20533  -1.12895  -1.12139
 Alpha  occ. eigenvalues --   -1.11337  -1.07643  -1.03801  -0.98824  -0.97396
 Alpha  occ. eigenvalues --   -0.88003  -0.84555  -0.82236  -0.73687  -0.71296
 Alpha  occ. eigenvalues --   -0.67838  -0.64612  -0.59530  -0.57258  -0.55386
 Alpha  occ. eigenvalues --   -0.53384  -0.52647  -0.52243  -0.51890  -0.50883
 Alpha  occ. eigenvalues --   -0.50387  -0.49356  -0.48215  -0.46804  -0.46074
 Alpha  occ. eigenvalues --   -0.45933  -0.45296  -0.43720  -0.43113  -0.39488
 Alpha  occ. eigenvalues --   -0.37627  -0.33119
 Alpha virt. eigenvalues --   -0.09329  -0.08268  -0.02100  -0.01264  -0.00508
 Alpha virt. eigenvalues --   -0.00363   0.00153   0.01253   0.02018   0.02226
 Alpha virt. eigenvalues --    0.02391   0.02956   0.03185   0.04003   0.04272
 Alpha virt. eigenvalues --    0.04484   0.05426   0.06004   0.06298   0.07065
 Alpha virt. eigenvalues --    0.07265   0.07525   0.07707   0.08289   0.08490
 Alpha virt. eigenvalues --    0.09374   0.10094   0.10389   0.10521   0.10806
 Alpha virt. eigenvalues --    0.11287   0.11390   0.11978   0.12524   0.13228
 Alpha virt. eigenvalues --    0.13487   0.13935   0.14453   0.15076   0.15190
 Alpha virt. eigenvalues --    0.15897   0.16270   0.16675   0.16813   0.17183
 Alpha virt. eigenvalues --    0.17359   0.17838   0.18611   0.19048   0.19559
 Alpha virt. eigenvalues --    0.19857   0.20236   0.20681   0.20944   0.21267
 Alpha virt. eigenvalues --    0.21883   0.22208   0.22582   0.22822   0.23608
 Alpha virt. eigenvalues --    0.23744   0.24112   0.24371   0.24701   0.25259
 Alpha virt. eigenvalues --    0.25694   0.25851   0.26230   0.26622   0.26749
 Alpha virt. eigenvalues --    0.27072   0.28336   0.29193   0.29661   0.30366
 Alpha virt. eigenvalues --    0.30711   0.32420   0.33455   0.34152   0.34716
 Alpha virt. eigenvalues --    0.34951   0.35468   0.36123   0.36935   0.37593
 Alpha virt. eigenvalues --    0.38151   0.39574   0.40727   0.41169   0.42048
 Alpha virt. eigenvalues --    0.42119   0.43485   0.44130   0.45736   0.45978
 Alpha virt. eigenvalues --    0.46953   0.48549   0.49569   0.50232   0.50592
 Alpha virt. eigenvalues --    0.51526   0.51856   0.53528   0.54166   0.54424
 Alpha virt. eigenvalues --    0.54702   0.55467   0.55733   0.55834   0.56451
 Alpha virt. eigenvalues --    0.57772   0.58137   0.58554   0.59213   0.60307
 Alpha virt. eigenvalues --    0.60552   0.61101   0.61587   0.62106   0.62707
 Alpha virt. eigenvalues --    0.63715   0.64715   0.64950   0.66005   0.66557
 Alpha virt. eigenvalues --    0.67688   0.68185   0.68806   0.70109   0.70416
 Alpha virt. eigenvalues --    0.71048   0.72860   0.73468   0.73853   0.75374
 Alpha virt. eigenvalues --    0.75566   0.76456   0.77063   0.77552   0.77843
 Alpha virt. eigenvalues --    0.78247   0.79255   0.79762   0.79881   0.81109
 Alpha virt. eigenvalues --    0.81535   0.82547   0.83280   0.83958   0.84871
 Alpha virt. eigenvalues --    0.85698   0.85940   0.87123   0.87251   0.88403
 Alpha virt. eigenvalues --    0.88458   0.89344   0.89665   0.89829   0.90732
 Alpha virt. eigenvalues --    0.91169   0.91722   0.92831   0.93721   0.94367
 Alpha virt. eigenvalues --    0.95434   0.95566   0.97325   0.98745   0.99311
 Alpha virt. eigenvalues --    0.99846   1.01207   1.02846   1.03576   1.04753
 Alpha virt. eigenvalues --    1.05758   1.06746   1.08039   1.08542   1.09637
 Alpha virt. eigenvalues --    1.10233   1.11404   1.13195   1.13607   1.14403
 Alpha virt. eigenvalues --    1.15323   1.17104   1.18346   1.20286   1.20631
 Alpha virt. eigenvalues --    1.21610   1.22701   1.23934   1.24219   1.26558
 Alpha virt. eigenvalues --    1.27347   1.29759   1.30248   1.32268   1.34123
 Alpha virt. eigenvalues --    1.37313   1.40083   1.40258   1.41566   1.42729
 Alpha virt. eigenvalues --    1.43616   1.45026   1.46462   1.47275   1.49372
 Alpha virt. eigenvalues --    1.49824   1.50474   1.51643   1.51868   1.52333
 Alpha virt. eigenvalues --    1.53715   1.54193   1.55432   1.56137   1.56448
 Alpha virt. eigenvalues --    1.56789   1.58487   1.59725   1.60388   1.60517
 Alpha virt. eigenvalues --    1.62128   1.63281   1.64918   1.66026   1.67546
 Alpha virt. eigenvalues --    1.68613   1.69175   1.70468   1.71324   1.74149
 Alpha virt. eigenvalues --    1.76826   1.77080   1.79017   1.79377   1.81040
 Alpha virt. eigenvalues --    1.82958   1.85920   1.88151   1.89700   1.90608
 Alpha virt. eigenvalues --    1.91369   1.94486   1.95007   1.97394   2.00537
 Alpha virt. eigenvalues --    2.00828   2.05447   2.07036   2.08350   2.08474
 Alpha virt. eigenvalues --    2.10897   2.13937   2.18606   2.20233   2.24595
 Alpha virt. eigenvalues --    2.27649   2.30686   2.37026   2.37401   2.38002
 Alpha virt. eigenvalues --    2.38279   2.39370   2.39930   2.40470   2.42150
 Alpha virt. eigenvalues --    2.42560   2.43757   2.45058   2.51014   2.54996
 Alpha virt. eigenvalues --    2.61161   2.64123   2.68329   2.71898   2.73264
 Alpha virt. eigenvalues --    2.76307   2.78779   2.81841   2.94681   2.99730
 Alpha virt. eigenvalues --    3.01877   3.09943   3.11452   3.15938   3.17850
 Alpha virt. eigenvalues --    3.24291   3.27130   3.35293   3.59308   3.74892
          Condensed to atoms (all electrons):
 Mulliken charges:
               1
     1  C    0.620886
     2  C   -0.111031
     3  S    0.374448
     4  S    0.297515
     5  C    1.040844
     6  C    1.129493
     7  C    0.786969
     8  N   -1.083003
     9  S    0.557423
    10  C   -1.129740
    11  N   -0.168037
    12  C   -1.099716
    13  N   -0.180329
    14  C   -0.852708
    15  N   -0.183012
 Sum of Mulliken charges =  -0.00000
 Mulliken charges with hydrogens summed into heavy atoms:
               1
     1  C    0.620886
     2  C   -0.111031
     3  S    0.374448
     4  S    0.297515
     5  C    1.040844
     6  C    1.129493
     7  C    0.786969
     8  N   -1.083003
     9  S    0.557423
    10  C   -1.129740
    11  N   -0.168037
    12  C   -1.099716
    13  N   -0.180329
    14  C   -0.852708
    15  N   -0.183012
 Electronic spatial extent (au):  <R**2>=          29518.9601
 Charge=             -0.0000 electrons
 Dipole moment (field-independent basis, Debye):
    X=             -0.8887    Y=              4.1403    Z=             -2.0046  Tot=              4.6851

 Test job not archived.
 1\1\GINC-CHIMERA-NODE41\SP\RM05\Gen\C8N4S3\CONNORNM\19-Jan-2019\0\\#T 
 M05/Gen test Massage SCF=(fermi,maxcyc=60)\\M05 opt\\0,1\C,0,0.5095841
 3,0.87976084,7.49943702\C,0,-0.63776649,0.79852532,6.661097\S,0,0.6796
 7884,0.09264693,9.06149852\S,0,-2.08421305,-0.1465427,7.04739627\C,0,-
 0.27475812,-1.37640009,8.78750394\C,0,-1.37112561,-1.46771952,7.989203
 79\C,0,1.43946226,1.72787396,6.93257373\N,0,-0.62497002,1.49728114,5.5
 5229738\S,0,0.79833752,2.35425944,5.44885311\C,0,0.19141841,-2.4945589
 2,9.5381636\N,0,0.59395052,-3.37052662,10.18765687\C,0,-2.09738142,-2.
 68975765,7.87467324\N,0,-2.7359687,-3.65567449,7.77399027\C,0,2.710349
 3,2.10033297,7.43386095\N,0,3.75228487,2.42413467,7.83463351\\Version=
 AS64L-G09RevD.01\HF=-1724.7614634\RMSD=5.139e-09\Dipole=-0.3496481,1.6
 289369,-0.7886602\Quadrupole=5.1059275,2.2936753,-7.3996028,-7.6556607
 ,-10.0000217,26.3790476\PG=C01 [X(C8N4S3)]\\@


 MOST BUREAUCRACIES FUNCTION LIKE A SEPTIC TANK.
 THE LARGE CHUNKS RISE TO THE TOP.
 Job cpu time:       0 days  1 hours 37 minutes 41.4 seconds.
 File lengths (MBytes):  RWF=     58 Int=      0 D2E=      0 Chk=      6 Scr=      1
 Normal termination of Gaussian 09 at Sat Jan 19 10:53:09 2019.
