 Entering Gaussian System, Link 0=/data/szalewicgrp/connornm/opt/Gaussian/g09-M05-par/g09/g09
 AtFile(1): blind-aug.gbs
 Initial command:
 /data/szalewicgrp/connornm/opt/Gaussian/g09-M05-par/g09/l1.exe "/scratch/local/Gau-30265.inp" -scrdir="/scratch/local/"
 Entering Link 1 = /data/szalewicgrp/connornm/opt/Gaussian/g09-M05-par/g09/l1.exe PID=     30266.
  
 Copyright (c) 1988,1990,1992,1993,1995,1998,2003,2009,2013,
            Gaussian, Inc.  All Rights Reserved.
  
 This is part of the Gaussian(R) 09 program.  It is based on
 the Gaussian(R) 03 system (copyright 2003, Gaussian, Inc.),
 the Gaussian(R) 98 system (copyright 1998, Gaussian, Inc.),
 the Gaussian(R) 94 system (copyright 1995, Gaussian, Inc.),
 the Gaussian 92(TM) system (copyright 1992, Gaussian, Inc.),
 the Gaussian 90(TM) system (copyright 1990, Gaussian, Inc.),
 the Gaussian 88(TM) system (copyright 1988, Gaussian, Inc.),
 the Gaussian 86(TM) system (copyright 1986, Carnegie Mellon
 University), and the Gaussian 82(TM) system (copyright 1983,
 Carnegie Mellon University). Gaussian is a federally registered
 trademark of Gaussian, Inc.
  
 This software contains proprietary and confidential information,
 including trade secrets, belonging to Gaussian, Inc.
  
 This software is provided under written license and may be
 used, copied, transmitted, or stored only in accord with that
 written license.
  
 The following legend is applicable only to US Government
 contracts under FAR:
  
                    RESTRICTED RIGHTS LEGEND
  
 Use, reproduction and disclosure by the US Government is
 subject to restrictions as set forth in subparagraphs (a)
 and (c) of the Commercial Computer Software - Restricted
 Rights clause in FAR 52.227-19.
  
 Gaussian, Inc.
 340 Quinnipiac St., Bldg. 40, Wallingford CT 06492
  
  
 ---------------------------------------------------------------
 Warning -- This program may not be used in any manner that
 competes with the business of Gaussian, Inc. or will provide
 assistance to any competitor of Gaussian, Inc.  The licensee
 of this program is prohibited from giving any competitor of
 Gaussian, Inc. access to this program.  By using this program,
 the user acknowledges that Gaussian, Inc. is engaged in the
 business of creating and licensing software in the field of
 computational chemistry and represents and warrants to the
 licensee that it is not a competitor of Gaussian, Inc. and that
 it will not use this program in any manner prohibited above.
 ---------------------------------------------------------------
  

 Cite this work as:
 Gaussian 09, Revision D.01,
 M. J. Frisch, G. W. Trucks, H. B. Schlegel, G. E. Scuseria, 
 M. A. Robb, J. R. Cheeseman, G. Scalmani, V. Barone, B. Mennucci, 
 G. A. Petersson, H. Nakatsuji, M. Caricato, X. Li, H. P. Hratchian, 
 A. F. Izmaylov, J. Bloino, G. Zheng, J. L. Sonnenberg, M. Hada, 
 M. Ehara, K. Toyota, R. Fukuda, J. Hasegawa, M. Ishida, T. Nakajima, 
 Y. Honda, O. Kitao, H. Nakai, T. Vreven, J. A. Montgomery, Jr., 
 J. E. Peralta, F. Ogliaro, M. Bearpark, J. J. Heyd, E. Brothers, 
 K. N. Kudin, V. N. Staroverov, T. Keith, R. Kobayashi, J. Normand, 
 K. Raghavachari, A. Rendell, J. C. Burant, S. S. Iyengar, J. Tomasi, 
 M. Cossi, N. Rega, J. M. Millam, M. Klene, J. E. Knox, J. B. Cross, 
 V. Bakken, C. Adamo, J. Jaramillo, R. Gomperts, R. E. Stratmann, 
 O. Yazyev, A. J. Austin, R. Cammi, C. Pomelli, J. W. Ochterski, 
 R. L. Martin, K. Morokuma, V. G. Zakrzewski, G. A. Voth, 
 P. Salvador, J. J. Dannenberg, S. Dapprich, A. D. Daniels, 
 O. Farkas, J. B. Foresman, J. V. Ortiz, J. Cioslowski, 
 and D. J. Fox, Gaussian, Inc., Wallingford CT, 2013.
 
 ******************************************
 Gaussian 09:  AS64L-G09RevD.01 24-Apr-2013
                19-Jan-2019 
 ******************************************
 %Chk=BLIND02422_mB
 %Mem=1GB
 %NProcShared=48
 Will use up to   48 processors via shared memory.
 ---------------------------------------------
 #T M05/Gen test Massage SCF=(fermi,maxcyc=60)
 ---------------------------------------------
 -------
 M05 opt
 -------
 Symbolic Z-matrix:
 Charge =  0 Multiplicity = 1
 6                     0.46404  -0.8802    8.07143 
 6                    -0.59765  -0.54877   8.95958 
 16                    0.53928  -0.43494   6.37302 
 16                   -2.01623   0.40488   8.49834 
 6                    -0.30132   1.12584   6.41173 
 6                    -1.31529   1.45536   7.25489 
 6                     1.39057  -1.66487   8.72805 
 7                    -0.52629  -1.01157   10.18375 
 16                    0.84917  -1.93379   10.35267 
 6                     0.15948   2.03432   5.41503 
 7                     0.55213   2.73103   4.57146 
 6                    -1.95732   2.7261    7.17132 
 7                    -2.52806   3.73731   7.12004 
 6                     2.5884   -2.22285   8.21912 
 7                     3.5703   -2.6963    7.81562 
 
                    Distance matrix (angstroms):
                    1          2          3          4          5
     1  C    0.000000
     2  C    1.423315   0.000000
     3  S    1.757418   2.827694   0.000000
     4  S    2.825849   1.770477   3.428253   0.000000
     5  C    2.713774   3.063280   1.773167   2.795470   0.000000
     6  C    3.047557   2.727187   2.791121   1.772288   1.359281
     7  C    1.380327   2.291783   2.789903   3.992857   4.001979
     8  N    2.336642   1.310672   3.998700   2.658358   4.341342
     9  S    2.542129   2.439721   4.263822   4.137445   5.120151
    10  C    3.955208   4.450782   2.675676   4.110426   1.425163
    11  N    5.029770   5.597745   3.642685   5.237162   2.586817
    12  C    4.436049   3.971317   4.106384   2.674416   2.424897
    13  N    5.583831   5.047859   5.232040   3.642352   3.504263
    14  C    2.517432   3.674472   3.286888   5.309014   4.778168
    15  N    3.607292   4.826214   4.047461   6.425950   5.618639
                    6          7          8          9         10
     6  C    0.000000
     7  C    4.384939   0.000000
     8  N    3.909794   2.494036   0.000000
     9  S    5.076167   1.733444   1.664607   0.000000
    10  C    2.428007   5.116215   5.699860   6.371958   0.000000
    11  N    3.509330   6.107712   6.831389   7.434461   1.162408
    12  C    1.426163   5.736923   5.009263   6.301738   2.836178
    13  N    2.587713   6.864751   5.995430   7.349618   3.609722
    14  C    5.449573   1.416040   3.876636   2.767765   5.646781
    15  N    6.435818   2.578302   5.022796   3.797715   6.306769
                   11         12         13         14         15
    11  N    0.000000
    12  C    3.613393   0.000000
    13  N    4.122555   1.162293   0.000000
    14  C    6.480188   6.800997   7.931563   0.000000
    15  N    7.006418   7.769948   8.891861   1.162367   0.000000
 Symmetry turned off by external request.
 Framework group  C1[X(C8N4S3)]
 Deg. of freedom    39
 Rotational constants (GHZ):      0.7722167      0.3388923      0.2463240
   357 basis functions,   759 primitive gaussians,   387 cartesian basis functions
    62 alpha electrons       62 beta electrons
       nuclear repulsion energy      1166.1400392198 Hartrees.
 IMHF & INEx in M05                  599485                  400514
 NAtoms=   15 NActive=   15 NUniq=   15 SFac= 1.00D+00 NAtFMM=   60 NAOKFM=F Big=F
 PrsmSu:  requested number of processors reduced to:  34 ShMem   1 Linda.
 ExpMin= 3.99D-02 ExpMax= 1.11D+05 ExpMxC= 1.07D+03 IAcc=3 IRadAn=         5 AccDes= 0.00D+00
 Harris functional with IExCor= 1009 and IRadAn=       5 diagonalized for initial guess.
 HarFok:  IExCor= 1009 AccDes= 0.00D+00 IRadAn=         5 IDoV= 1 UseB2=F ITyADJ=14
 ICtDFT=  3500011 ScaDFX=  1.000000  1.000000  1.000000  1.000000
 FoFCou: FMM=F IPFlag=           0 FMFlag=      100000 FMFlg1=           0
         NFxFlg=           0 DoJE=T BraDBF=F KetDBF=T FulRan=T
         wScrn=  0.000000 ICntrl=     500 IOpCl=  0 I1Cent=   200000004 NGrid=           0
         NMat0=    1 NMatS0=      1 NMatT0=    0 NMatD0=    1 NMtDS0=    0 NMtDT0=    0
 Symmetry not used in FoFCou.
 SCF Done:  E(RM05) =  -1724.76147797     A.U. after   17 cycles
            NFock= 17  Conv=0.52D-08     -V/T= 2.0061

 **********************************************************************

            Population analysis using the SCF density.

 **********************************************************************

 Alpha  occ. eigenvalues --  -90.56429 -90.53634 -90.53183 -15.08622 -15.05416
 Alpha  occ. eigenvalues --  -15.04969 -15.04933 -10.89945 -10.89827 -10.89736
 Alpha  occ. eigenvalues --  -10.88752 -10.87413 -10.84946 -10.84332 -10.84310
 Alpha  occ. eigenvalues --   -8.57524  -8.55034  -8.54610  -6.40062  -6.39711
 Alpha  occ. eigenvalues --   -6.39400  -6.37596  -6.37281  -6.37163  -6.36854
 Alpha  occ. eigenvalues --   -6.36820  -6.36393  -1.20533  -1.12895  -1.12139
 Alpha  occ. eigenvalues --   -1.11337  -1.07643  -1.03801  -0.98824  -0.97396
 Alpha  occ. eigenvalues --   -0.88002  -0.84555  -0.82236  -0.73686  -0.71296
 Alpha  occ. eigenvalues --   -0.67838  -0.64612  -0.59530  -0.57258  -0.55386
 Alpha  occ. eigenvalues --   -0.53385  -0.52647  -0.52243  -0.51890  -0.50883
 Alpha  occ. eigenvalues --   -0.50387  -0.49356  -0.48215  -0.46805  -0.46074
 Alpha  occ. eigenvalues --   -0.45933  -0.45296  -0.43720  -0.43113  -0.39488
 Alpha  occ. eigenvalues --   -0.37628  -0.33119
 Alpha virt. eigenvalues --   -0.09329  -0.08268  -0.02099  -0.01262  -0.00502
 Alpha virt. eigenvalues --   -0.00361   0.00154   0.01255   0.02021   0.02230
 Alpha virt. eigenvalues --    0.02392   0.02958   0.03189   0.04004   0.04276
 Alpha virt. eigenvalues --    0.04485   0.05428   0.06005   0.06299   0.07068
 Alpha virt. eigenvalues --    0.07274   0.07526   0.07708   0.08292   0.08489
 Alpha virt. eigenvalues --    0.09378   0.10094   0.10394   0.10527   0.10809
 Alpha virt. eigenvalues --    0.11288   0.11393   0.11979   0.12528   0.13229
 Alpha virt. eigenvalues --    0.13485   0.13937   0.14457   0.15073   0.15192
 Alpha virt. eigenvalues --    0.15905   0.16278   0.16678   0.16813   0.17190
 Alpha virt. eigenvalues --    0.17358   0.17837   0.18615   0.19051   0.19566
 Alpha virt. eigenvalues --    0.19860   0.20242   0.20683   0.20936   0.21262
 Alpha virt. eigenvalues --    0.21883   0.22205   0.22580   0.22821   0.23613
 Alpha virt. eigenvalues --    0.23748   0.24120   0.24370   0.24705   0.25259
 Alpha virt. eigenvalues --    0.25697   0.25854   0.26226   0.26623   0.26747
 Alpha virt. eigenvalues --    0.27072   0.28336   0.29194   0.29659   0.30368
 Alpha virt. eigenvalues --    0.30713   0.32420   0.33455   0.34157   0.34714
 Alpha virt. eigenvalues --    0.34947   0.35471   0.36121   0.36938   0.37594
 Alpha virt. eigenvalues --    0.38152   0.39577   0.40726   0.41170   0.42050
 Alpha virt. eigenvalues --    0.42117   0.43483   0.44138   0.45734   0.45985
 Alpha virt. eigenvalues --    0.46964   0.48550   0.49571   0.50236   0.50595
 Alpha virt. eigenvalues --    0.51527   0.51854   0.53527   0.54166   0.54422
 Alpha virt. eigenvalues --    0.54698   0.55464   0.55729   0.55836   0.56451
 Alpha virt. eigenvalues --    0.57770   0.58142   0.58554   0.59218   0.60310
 Alpha virt. eigenvalues --    0.60552   0.61101   0.61582   0.62101   0.62712
 Alpha virt. eigenvalues --    0.63716   0.64715   0.64955   0.66008   0.66558
 Alpha virt. eigenvalues --    0.67689   0.68195   0.68806   0.70107   0.70413
 Alpha virt. eigenvalues --    0.71048   0.72866   0.73470   0.73855   0.75374
 Alpha virt. eigenvalues --    0.75567   0.76460   0.77063   0.77550   0.77845
 Alpha virt. eigenvalues --    0.78245   0.79256   0.79763   0.79878   0.81110
 Alpha virt. eigenvalues --    0.81536   0.82544   0.83275   0.83955   0.84871
 Alpha virt. eigenvalues --    0.85698   0.85940   0.87122   0.87249   0.88401
 Alpha virt. eigenvalues --    0.88460   0.89344   0.89665   0.89830   0.90731
 Alpha virt. eigenvalues --    0.91171   0.91724   0.92829   0.93721   0.94369
 Alpha virt. eigenvalues --    0.95431   0.95567   0.97328   0.98745   0.99315
 Alpha virt. eigenvalues --    0.99849   1.01206   1.02847   1.03579   1.04747
 Alpha virt. eigenvalues --    1.05759   1.06746   1.08038   1.08543   1.09637
 Alpha virt. eigenvalues --    1.10234   1.11404   1.13197   1.13607   1.14405
 Alpha virt. eigenvalues --    1.15322   1.17099   1.18343   1.20285   1.20632
 Alpha virt. eigenvalues --    1.21609   1.22703   1.23937   1.24220   1.26559
 Alpha virt. eigenvalues --    1.27345   1.29759   1.30250   1.32270   1.34126
 Alpha virt. eigenvalues --    1.37313   1.40081   1.40259   1.41566   1.42730
 Alpha virt. eigenvalues --    1.43616   1.45024   1.46463   1.47273   1.49371
 Alpha virt. eigenvalues --    1.49824   1.50472   1.51641   1.51867   1.52332
 Alpha virt. eigenvalues --    1.53716   1.54195   1.55430   1.56136   1.56451
 Alpha virt. eigenvalues --    1.56791   1.58486   1.59724   1.60391   1.60518
 Alpha virt. eigenvalues --    1.62130   1.63280   1.64921   1.66031   1.67546
 Alpha virt. eigenvalues --    1.68611   1.69174   1.70472   1.71322   1.74149
 Alpha virt. eigenvalues --    1.76827   1.77077   1.79014   1.79377   1.81039
 Alpha virt. eigenvalues --    1.82957   1.85916   1.88148   1.89703   1.90609
 Alpha virt. eigenvalues --    1.91368   1.94484   1.95003   1.97395   2.00538
 Alpha virt. eigenvalues --    2.00828   2.05449   2.07034   2.08347   2.08473
 Alpha virt. eigenvalues --    2.10896   2.13934   2.18606   2.20230   2.24592
 Alpha virt. eigenvalues --    2.27645   2.30686   2.37027   2.37401   2.38002
 Alpha virt. eigenvalues --    2.38280   2.39370   2.39931   2.40470   2.42150
 Alpha virt. eigenvalues --    2.42559   2.43755   2.45056   2.51021   2.54996
 Alpha virt. eigenvalues --    2.61160   2.64128   2.68329   2.71899   2.73264
 Alpha virt. eigenvalues --    2.76309   2.78780   2.81841   2.94680   2.99730
 Alpha virt. eigenvalues --    3.01876   3.09942   3.11451   3.15939   3.17849
 Alpha virt. eigenvalues --    3.24292   3.27128   3.35294   3.59305   3.74885
          Condensed to atoms (all electrons):
 Mulliken charges:
               1
     1  C    0.619499
     2  C   -0.109061
     3  S    0.374858
     4  S    0.296037
     5  C    1.039238
     6  C    1.132440
     7  C    0.787050
     8  N   -1.083488
     9  S    0.557601
    10  C   -1.129454
    11  N   -0.167842
    12  C   -1.100498
    13  N   -0.180375
    14  C   -0.852997
    15  N   -0.183009
 Sum of Mulliken charges =  -0.00000
 Mulliken charges with hydrogens summed into heavy atoms:
               1
     1  C    0.619499
     2  C   -0.109061
     3  S    0.374858
     4  S    0.296037
     5  C    1.039238
     6  C    1.132440
     7  C    0.787050
     8  N   -1.083488
     9  S    0.557601
    10  C   -1.129454
    11  N   -0.167842
    12  C   -1.100498
    13  N   -0.180375
    14  C   -0.852997
    15  N   -0.183009
 Electronic spatial extent (au):  <R**2>=          31234.2060
 Charge=             -0.0000 electrons
 Dipole moment (field-independent basis, Debye):
    X=             -0.9426    Y=             -3.5797    Z=              2.8718  Tot=              4.6851

 Test job not archived.
 1\1\GINC-CHIMERA-NODE41\SP\RM05\Gen\C8N4S3\CONNORNM\19-Jan-2019\0\\#T 
 M05/Gen test Massage SCF=(fermi,maxcyc=60)\\M05 opt\\0,1\C,0,0.4640360
 2,-0.88020124,8.07143431\C,0,-0.5976473,-0.54877254,8.95958419\S,0,0.5
 3928131,-0.43493684,6.37302493\S,0,-2.01623397,0.40488067,8.49834048\C
 ,0,-0.30131828,1.12583739,6.4117316\C,0,-1.31528914,1.45536404,7.25489
 193\C,0,1.39056677,-1.66486611,8.72805065\N,0,-0.52629068,-1.01156508,
 10.18375383\S,0,0.84916771,-1.93378947,10.35267179\C,0,0.15948215,2.03
 432406,5.41503476\N,0,0.55212883,2.73102912,4.57145686\C,0,-1.95731577
 ,2.72609568,7.17131662\N,0,-2.52806138,3.73730616,7.12004325\C,0,2.588
 40377,-2.22285277,8.21912447\N,0,3.57030154,-2.69630371,7.81561871\\Ve
 rsion=AS64L-G09RevD.01\HF=-1724.761478\RMSD=5.183e-09\Dipole=-0.370832
 6,-1.4083679,1.129842\Quadrupole=-11.7426471,-15.9593277,27.7019748,8.
 6812,-1.2585548,-16.4717308\PG=C01 [X(C8N4S3)]\\@


 YE HAVE SOWN MUCH, AND BRING IN LITTLE.
 YE EAT, BUT YE HAVE NOT ENOUGH.
 YE DRINK, BUT YE ARE NOT FILLED WITH DRINK.
 YE CLOTHE YOU, BUT THERE IS NONE WARM.
 AND HE THAT EARNETH WAGES EARNETH WAGES TO PUT
 IT INTO A BAG WITH HOLES.
                                     HAGGAI I,6
 Job cpu time:       0 days  1 hours 36 minutes 43.2 seconds.
 File lengths (MBytes):  RWF=     58 Int=      0 D2E=      0 Chk=      6 Scr=      1
 Normal termination of Gaussian 09 at Sat Jan 19 10:55:11 2019.
