 Entering Gaussian System, Link 0=/data/szalewicgrp/connornm/opt/Gaussian/g09-M05-par/g09/g09
 AtFile(1): blind-aug.gbs
 Initial command:
 /data/szalewicgrp/connornm/opt/Gaussian/g09-M05-par/g09/l1.exe "/scratch/local/Gau-17988.inp" -scrdir="/scratch/local/"
 Entering Link 1 = /data/szalewicgrp/connornm/opt/Gaussian/g09-M05-par/g09/l1.exe PID=     17989.
  
 Copyright (c) 1988,1990,1992,1993,1995,1998,2003,2009,2013,
            Gaussian, Inc.  All Rights Reserved.
  
 This is part of the Gaussian(R) 09 program.  It is based on
 the Gaussian(R) 03 system (copyright 2003, Gaussian, Inc.),
 the Gaussian(R) 98 system (copyright 1998, Gaussian, Inc.),
 the Gaussian(R) 94 system (copyright 1995, Gaussian, Inc.),
 the Gaussian 92(TM) system (copyright 1992, Gaussian, Inc.),
 the Gaussian 90(TM) system (copyright 1990, Gaussian, Inc.),
 the Gaussian 88(TM) system (copyright 1988, Gaussian, Inc.),
 the Gaussian 86(TM) system (copyright 1986, Carnegie Mellon
 University), and the Gaussian 82(TM) system (copyright 1983,
 Carnegie Mellon University). Gaussian is a federally registered
 trademark of Gaussian, Inc.
  
 This software contains proprietary and confidential information,
 including trade secrets, belonging to Gaussian, Inc.
  
 This software is provided under written license and may be
 used, copied, transmitted, or stored only in accord with that
 written license.
  
 The following legend is applicable only to US Government
 contracts under FAR:
  
                    RESTRICTED RIGHTS LEGEND
  
 Use, reproduction and disclosure by the US Government is
 subject to restrictions as set forth in subparagraphs (a)
 and (c) of the Commercial Computer Software - Restricted
 Rights clause in FAR 52.227-19.
  
 Gaussian, Inc.
 340 Quinnipiac St., Bldg. 40, Wallingford CT 06492
  
  
 ---------------------------------------------------------------
 Warning -- This program may not be used in any manner that
 competes with the business of Gaussian, Inc. or will provide
 assistance to any competitor of Gaussian, Inc.  The licensee
 of this program is prohibited from giving any competitor of
 Gaussian, Inc. access to this program.  By using this program,
 the user acknowledges that Gaussian, Inc. is engaged in the
 business of creating and licensing software in the field of
 computational chemistry and represents and warrants to the
 licensee that it is not a competitor of Gaussian, Inc. and that
 it will not use this program in any manner prohibited above.
 ---------------------------------------------------------------
  

 Cite this work as:
 Gaussian 09, Revision D.01,
 M. J. Frisch, G. W. Trucks, H. B. Schlegel, G. E. Scuseria, 
 M. A. Robb, J. R. Cheeseman, G. Scalmani, V. Barone, B. Mennucci, 
 G. A. Petersson, H. Nakatsuji, M. Caricato, X. Li, H. P. Hratchian, 
 A. F. Izmaylov, J. Bloino, G. Zheng, J. L. Sonnenberg, M. Hada, 
 M. Ehara, K. Toyota, R. Fukuda, J. Hasegawa, M. Ishida, T. Nakajima, 
 Y. Honda, O. Kitao, H. Nakai, T. Vreven, J. A. Montgomery, Jr., 
 J. E. Peralta, F. Ogliaro, M. Bearpark, J. J. Heyd, E. Brothers, 
 K. N. Kudin, V. N. Staroverov, T. Keith, R. Kobayashi, J. Normand, 
 K. Raghavachari, A. Rendell, J. C. Burant, S. S. Iyengar, J. Tomasi, 
 M. Cossi, N. Rega, J. M. Millam, M. Klene, J. E. Knox, J. B. Cross, 
 V. Bakken, C. Adamo, J. Jaramillo, R. Gomperts, R. E. Stratmann, 
 O. Yazyev, A. J. Austin, R. Cammi, C. Pomelli, J. W. Ochterski, 
 R. L. Martin, K. Morokuma, V. G. Zakrzewski, G. A. Voth, 
 P. Salvador, J. J. Dannenberg, S. Dapprich, A. D. Daniels, 
 O. Farkas, J. B. Foresman, J. V. Ortiz, J. Cioslowski, 
 and D. J. Fox, Gaussian, Inc., Wallingford CT, 2013.
 
 ******************************************
 Gaussian 09:  AS64L-G09RevD.01 24-Apr-2013
                19-Jan-2019 
 ******************************************
 %Chk=BLIND01687_mA
 %Mem=1GB
 %NProcShared=48
 Will use up to   48 processors via shared memory.
 ---------------------------------------------
 #T M05/Gen test Massage SCF=(fermi,maxcyc=60)
 ---------------------------------------------
 -------
 M05 opt
 -------
 Symbolic Z-matrix:
 Charge =  0 Multiplicity = 1
 6                    -0.29283  -0.28825  -0.93395 
 6                    -0.46057  -1.29778   0.05525 
 16                   -0.39622   1.44174  -0.64243 
 16                   -0.7727   -0.96823   1.76656 
 6                     0.23511   1.52778   1.0123 
 6                     0.083     0.57096   1.96572 
 6                    -0.10781  -0.87529  -2.16945 
 7                    -0.4119   -2.54567  -0.34256 
 16                   -0.18549  -2.59775  -1.99087 
 6                     0.90691   2.75321   1.29177 
 7                     1.42427   3.77714   1.47909 
 6                     0.59106   0.76023   3.28481 
 7                     0.96247   0.88379   4.37921 
 6                     0.08494  -0.24449  -3.4225 
 7                     0.23501   0.2564   -4.46061 
 
                    Distance matrix (angstroms):
                    1          2          3          4          5
     1  C    0.000000
     2  C    1.423315   0.000000
     3  S    1.757418   2.827694   0.000000
     4  S    2.825849   1.770477   3.428253   0.000000
     5  C    2.713774   3.063280   1.773167   2.795470   0.000000
     6  C    3.047557   2.727187   2.791121   1.772288   1.359281
     7  C    1.380327   2.291783   2.789903   3.992857   4.001979
     8  N    2.336642   1.310672   3.998700   2.658358   4.341342
     9  S    2.542129   2.439721   4.263822   4.137445   5.120151
    10  C    3.955208   4.450782   2.675676   4.110426   1.425163
    11  N    5.029770   5.597745   3.642685   5.237162   2.586817
    12  C    4.436049   3.971317   4.106384   2.674416   2.424897
    13  N    5.583831   5.047859   5.232040   3.642352   3.504263
    14  C    2.517432   3.674472   3.286888   5.309014   4.778168
    15  N    3.607292   4.826214   4.047461   6.425950   5.618639
                    6          7          8          9         10
     6  C    0.000000
     7  C    4.384939   0.000000
     8  N    3.909794   2.494036   0.000000
     9  S    5.076167   1.733444   1.664607   0.000000
    10  C    2.428007   5.116215   5.699860   6.371958   0.000000
    11  N    3.509330   6.107712   6.831389   7.434461   1.162408
    12  C    1.426163   5.736923   5.009263   6.301738   2.836178
    13  N    2.587713   6.864751   5.995430   7.349618   3.609722
    14  C    5.449573   1.416040   3.876636   2.767765   5.646781
    15  N    6.435818   2.578302   5.022796   3.797715   6.306769
                   11         12         13         14         15
    11  N    0.000000
    12  C    3.613393   0.000000
    13  N    4.122555   1.162293   0.000000
    14  C    6.480188   6.800997   7.931563   0.000000
    15  N    7.006418   7.769948   8.891861   1.162367   0.000000
 Symmetry turned off by external request.
 Framework group  C1[X(C8N4S3)]
 Deg. of freedom    39
 Rotational constants (GHZ):      0.7722167      0.3388923      0.2463240
   357 basis functions,   759 primitive gaussians,   387 cartesian basis functions
    62 alpha electrons       62 beta electrons
       nuclear repulsion energy      1166.1400402190 Hartrees.
 IMHF & INEx in M05                  599485                  400514
 NAtoms=   15 NActive=   15 NUniq=   15 SFac= 1.00D+00 NAtFMM=   60 NAOKFM=F Big=F
 PrsmSu:  requested number of processors reduced to:  34 ShMem   1 Linda.
 ExpMin= 3.99D-02 ExpMax= 1.11D+05 ExpMxC= 1.07D+03 IAcc=3 IRadAn=         5 AccDes= 0.00D+00
 Harris functional with IExCor= 1009 and IRadAn=       5 diagonalized for initial guess.
 HarFok:  IExCor= 1009 AccDes= 0.00D+00 IRadAn=         5 IDoV= 1 UseB2=F ITyADJ=14
 ICtDFT=  3500011 ScaDFX=  1.000000  1.000000  1.000000  1.000000
 FoFCou: FMM=F IPFlag=           0 FMFlag=      100000 FMFlg1=           0
         NFxFlg=           0 DoJE=T BraDBF=F KetDBF=T FulRan=T
         wScrn=  0.000000 ICntrl=     500 IOpCl=  0 I1Cent=   200000004 NGrid=           0
         NMat0=    1 NMatS0=      1 NMatT0=    0 NMatD0=    1 NMtDS0=    0 NMtDT0=    0
 Symmetry not used in FoFCou.
 SCF Done:  E(RM05) =  -1724.76146999     A.U. after   17 cycles
            NFock= 17  Conv=0.51D-08     -V/T= 2.0061

 **********************************************************************

            Population analysis using the SCF density.

 **********************************************************************

 Alpha  occ. eigenvalues --  -90.56429 -90.53635 -90.53183 -15.08621 -15.05417
 Alpha  occ. eigenvalues --  -15.04969 -15.04934 -10.89945 -10.89826 -10.89736
 Alpha  occ. eigenvalues --  -10.88751 -10.87413 -10.84947 -10.84332 -10.84310
 Alpha  occ. eigenvalues --   -8.57524  -8.55034  -8.54610  -6.40062  -6.39711
 Alpha  occ. eigenvalues --   -6.39400  -6.37596  -6.37281  -6.37164  -6.36854
 Alpha  occ. eigenvalues --   -6.36821  -6.36393  -1.20533  -1.12895  -1.12139
 Alpha  occ. eigenvalues --   -1.11337  -1.07643  -1.03801  -0.98824  -0.97396
 Alpha  occ. eigenvalues --   -0.88002  -0.84555  -0.82236  -0.73686  -0.71296
 Alpha  occ. eigenvalues --   -0.67838  -0.64612  -0.59530  -0.57258  -0.55386
 Alpha  occ. eigenvalues --   -0.53384  -0.52648  -0.52243  -0.51890  -0.50883
 Alpha  occ. eigenvalues --   -0.50387  -0.49357  -0.48215  -0.46804  -0.46074
 Alpha  occ. eigenvalues --   -0.45933  -0.45296  -0.43720  -0.43113  -0.39488
 Alpha  occ. eigenvalues --   -0.37627  -0.33119
 Alpha virt. eigenvalues --   -0.09329  -0.08268  -0.02099  -0.01263  -0.00504
 Alpha virt. eigenvalues --   -0.00362   0.00154   0.01255   0.02021   0.02227
 Alpha virt. eigenvalues --    0.02393   0.02956   0.03187   0.04002   0.04277
 Alpha virt. eigenvalues --    0.04486   0.05427   0.06007   0.06297   0.07068
 Alpha virt. eigenvalues --    0.07269   0.07526   0.07707   0.08288   0.08491
 Alpha virt. eigenvalues --    0.09377   0.10093   0.10391   0.10522   0.10809
 Alpha virt. eigenvalues --    0.11287   0.11391   0.11977   0.12526   0.13227
 Alpha virt. eigenvalues --    0.13488   0.13939   0.14458   0.15076   0.15192
 Alpha virt. eigenvalues --    0.15901   0.16274   0.16677   0.16814   0.17189
 Alpha virt. eigenvalues --    0.17361   0.17841   0.18612   0.19049   0.19564
 Alpha virt. eigenvalues --    0.19861   0.20240   0.20683   0.20941   0.21271
 Alpha virt. eigenvalues --    0.21881   0.22208   0.22583   0.22820   0.23612
 Alpha virt. eigenvalues --    0.23750   0.24113   0.24370   0.24701   0.25256
 Alpha virt. eigenvalues --    0.25695   0.25852   0.26224   0.26626   0.26747
 Alpha virt. eigenvalues --    0.27072   0.28333   0.29192   0.29664   0.30369
 Alpha virt. eigenvalues --    0.30711   0.32418   0.33456   0.34152   0.34714
 Alpha virt. eigenvalues --    0.34950   0.35471   0.36121   0.36932   0.37596
 Alpha virt. eigenvalues --    0.38151   0.39578   0.40726   0.41167   0.42049
 Alpha virt. eigenvalues --    0.42117   0.43485   0.44134   0.45736   0.45977
 Alpha virt. eigenvalues --    0.46960   0.48557   0.49574   0.50242   0.50602
 Alpha virt. eigenvalues --    0.51527   0.51857   0.53531   0.54165   0.54425
 Alpha virt. eigenvalues --    0.54704   0.55468   0.55738   0.55839   0.56452
 Alpha virt. eigenvalues --    0.57774   0.58139   0.58557   0.59212   0.60315
 Alpha virt. eigenvalues --    0.60551   0.61105   0.61589   0.62106   0.62711
 Alpha virt. eigenvalues --    0.63725   0.64720   0.64956   0.66010   0.66555
 Alpha virt. eigenvalues --    0.67692   0.68191   0.68806   0.70110   0.70414
 Alpha virt. eigenvalues --    0.71047   0.72862   0.73467   0.73851   0.75371
 Alpha virt. eigenvalues --    0.75563   0.76457   0.77062   0.77548   0.77844
 Alpha virt. eigenvalues --    0.78244   0.79255   0.79759   0.79878   0.81105
 Alpha virt. eigenvalues --    0.81534   0.82546   0.83278   0.83956   0.84870
 Alpha virt. eigenvalues --    0.85700   0.85939   0.87122   0.87244   0.88405
 Alpha virt. eigenvalues --    0.88459   0.89345   0.89665   0.89830   0.90729
 Alpha virt. eigenvalues --    0.91172   0.91722   0.92827   0.93720   0.94368
 Alpha virt. eigenvalues --    0.95430   0.95566   0.97323   0.98745   0.99313
 Alpha virt. eigenvalues --    0.99849   1.01203   1.02844   1.03573   1.04749
 Alpha virt. eigenvalues --    1.05758   1.06743   1.08037   1.08542   1.09634
 Alpha virt. eigenvalues --    1.10233   1.11401   1.13195   1.13607   1.14402
 Alpha virt. eigenvalues --    1.15324   1.17105   1.18347   1.20286   1.20632
 Alpha virt. eigenvalues --    1.21607   1.22701   1.23937   1.24220   1.26556
 Alpha virt. eigenvalues --    1.27346   1.29756   1.30248   1.32271   1.34126
 Alpha virt. eigenvalues --    1.37315   1.40082   1.40258   1.41567   1.42729
 Alpha virt. eigenvalues --    1.43615   1.45023   1.46464   1.47273   1.49372
 Alpha virt. eigenvalues --    1.49822   1.50474   1.51642   1.51868   1.52332
 Alpha virt. eigenvalues --    1.53714   1.54193   1.55432   1.56136   1.56453
 Alpha virt. eigenvalues --    1.56788   1.58487   1.59724   1.60388   1.60513
 Alpha virt. eigenvalues --    1.62131   1.63279   1.64920   1.66029   1.67546
 Alpha virt. eigenvalues --    1.68616   1.69177   1.70470   1.71327   1.74154
 Alpha virt. eigenvalues --    1.76828   1.77077   1.79016   1.79378   1.81045
 Alpha virt. eigenvalues --    1.82961   1.85922   1.88148   1.89707   1.90607
 Alpha virt. eigenvalues --    1.91369   1.94487   1.95006   1.97394   2.00542
 Alpha virt. eigenvalues --    2.00829   2.05448   2.07037   2.08350   2.08476
 Alpha virt. eigenvalues --    2.10898   2.13937   2.18602   2.20234   2.24596
 Alpha virt. eigenvalues --    2.27644   2.30687   2.37025   2.37401   2.38002
 Alpha virt. eigenvalues --    2.38279   2.39369   2.39931   2.40471   2.42149
 Alpha virt. eigenvalues --    2.42560   2.43755   2.45057   2.51009   2.54996
 Alpha virt. eigenvalues --    2.61154   2.64126   2.68330   2.71898   2.73263
 Alpha virt. eigenvalues --    2.76309   2.78779   2.81841   2.94681   2.99730
 Alpha virt. eigenvalues --    3.01878   3.09943   3.11452   3.15940   3.17850
 Alpha virt. eigenvalues --    3.24295   3.27132   3.35294   3.59305   3.74891
          Condensed to atoms (all electrons):
 Mulliken charges:
               1
     1  C    0.620582
     2  C   -0.109977
     3  S    0.373654
     4  S    0.297106
     5  C    1.041644
     6  C    1.129971
     7  C    0.787495
     8  N   -1.083406
     9  S    0.557358
    10  C   -1.129772
    11  N   -0.168178
    12  C   -1.099827
    13  N   -0.180626
    14  C   -0.853124
    15  N   -0.182900
 Sum of Mulliken charges =  -0.00000
 Mulliken charges with hydrogens summed into heavy atoms:
               1
     1  C    0.620582
     2  C   -0.109977
     3  S    0.373654
     4  S    0.297106
     5  C    1.041644
     6  C    1.129971
     7  C    0.787495
     8  N   -1.083406
     9  S    0.557358
    10  C   -1.129772
    11  N   -0.168178
    12  C   -1.099827
    13  N   -0.180626
    14  C   -0.853124
    15  N   -0.182900
 Electronic spatial extent (au):  <R**2>=           4013.7184
 Charge=             -0.0000 electrons
 Dipole moment (field-independent basis, Debye):
    X=             -2.4011    Y=             -3.6343    Z=             -1.7256  Tot=              4.6852

 Test job not archived.
 1\1\GINC-CHIMERA-NODE59\SP\RM05\Gen\C8N4S3\CONNORNM\19-Jan-2019\0\\#T 
 M05/Gen test Massage SCF=(fermi,maxcyc=60)\\M05 opt\\0,1\C,0,-0.292833
 42,-0.28824749,-0.93395443\C,0,-0.46057366,-1.29777972,0.05525462\S,0,
 -0.3962228,1.44173583,-0.64243262\S,0,-0.77269923,-0.96823123,1.766559
 32\C,0,0.23511278,1.52777684,1.0122983\C,0,0.08299862,0.57096319,1.965
 72002\C,0,-0.10780507,-0.875285,-2.16945218\N,0,-0.41190266,-2.5456727
 6,-0.34255704\S,0,-0.1854892,-2.59775438,-1.99087173\C,0,0.90690645,2.
 75320673,1.29177011\N,0,1.42427211,3.77713966,1.47908577\C,0,0.5910593
 2,0.76023223,3.28480815\N,0,0.96246926,0.88378904,4.37920958\C,0,0.084
 93687,-0.24449162,-3.42249595\N,0,0.23501294,0.25640283,-4.46060859\\V
 ersion=AS64L-G09RevD.01\HF=-1724.76147\RMSD=5.147e-09\Dipole=-0.944663
 3,-1.429833,-0.6788897\Quadrupole=8.8086498,2.1221893,-10.9308392,-4.9
 740534,-3.6376873,-0.1568974\PG=C01 [X(C8N4S3)]\\@


 K N O W I N G  IS A BARRIER WHICH PREVENTS LEARNING

                     -- TEACHING OF THE BENE GESSERIT
 Job cpu time:       0 days  1 hours 49 minutes  8.2 seconds.
 File lengths (MBytes):  RWF=     58 Int=      0 D2E=      0 Chk=      6 Scr=      1
 Normal termination of Gaussian 09 at Sat Jan 19 11:07:33 2019.
