 Entering Gaussian System, Link 0=/data/szalewicgrp/connornm/opt/Gaussian/g09-M05-par/g09/g09
 AtFile(1): blind-aug.gbs
 Initial command:
 /data/szalewicgrp/connornm/opt/Gaussian/g09-M05-par/g09/l1.exe "/scratch/local/Gau-4959.inp" -scrdir="/scratch/local/"
 Entering Link 1 = /data/szalewicgrp/connornm/opt/Gaussian/g09-M05-par/g09/l1.exe PID=      4960.
  
 Copyright (c) 1988,1990,1992,1993,1995,1998,2003,2009,2013,
            Gaussian, Inc.  All Rights Reserved.
  
 This is part of the Gaussian(R) 09 program.  It is based on
 the Gaussian(R) 03 system (copyright 2003, Gaussian, Inc.),
 the Gaussian(R) 98 system (copyright 1998, Gaussian, Inc.),
 the Gaussian(R) 94 system (copyright 1995, Gaussian, Inc.),
 the Gaussian 92(TM) system (copyright 1992, Gaussian, Inc.),
 the Gaussian 90(TM) system (copyright 1990, Gaussian, Inc.),
 the Gaussian 88(TM) system (copyright 1988, Gaussian, Inc.),
 the Gaussian 86(TM) system (copyright 1986, Carnegie Mellon
 University), and the Gaussian 82(TM) system (copyright 1983,
 Carnegie Mellon University). Gaussian is a federally registered
 trademark of Gaussian, Inc.
  
 This software contains proprietary and confidential information,
 including trade secrets, belonging to Gaussian, Inc.
  
 This software is provided under written license and may be
 used, copied, transmitted, or stored only in accord with that
 written license.
  
 The following legend is applicable only to US Government
 contracts under FAR:
  
                    RESTRICTED RIGHTS LEGEND
  
 Use, reproduction and disclosure by the US Government is
 subject to restrictions as set forth in subparagraphs (a)
 and (c) of the Commercial Computer Software - Restricted
 Rights clause in FAR 52.227-19.
  
 Gaussian, Inc.
 340 Quinnipiac St., Bldg. 40, Wallingford CT 06492
  
  
 ---------------------------------------------------------------
 Warning -- This program may not be used in any manner that
 competes with the business of Gaussian, Inc. or will provide
 assistance to any competitor of Gaussian, Inc.  The licensee
 of this program is prohibited from giving any competitor of
 Gaussian, Inc. access to this program.  By using this program,
 the user acknowledges that Gaussian, Inc. is engaged in the
 business of creating and licensing software in the field of
 computational chemistry and represents and warrants to the
 licensee that it is not a competitor of Gaussian, Inc. and that
 it will not use this program in any manner prohibited above.
 ---------------------------------------------------------------
  

 Cite this work as:
 Gaussian 09, Revision D.01,
 M. J. Frisch, G. W. Trucks, H. B. Schlegel, G. E. Scuseria, 
 M. A. Robb, J. R. Cheeseman, G. Scalmani, V. Barone, B. Mennucci, 
 G. A. Petersson, H. Nakatsuji, M. Caricato, X. Li, H. P. Hratchian, 
 A. F. Izmaylov, J. Bloino, G. Zheng, J. L. Sonnenberg, M. Hada, 
 M. Ehara, K. Toyota, R. Fukuda, J. Hasegawa, M. Ishida, T. Nakajima, 
 Y. Honda, O. Kitao, H. Nakai, T. Vreven, J. A. Montgomery, Jr., 
 J. E. Peralta, F. Ogliaro, M. Bearpark, J. J. Heyd, E. Brothers, 
 K. N. Kudin, V. N. Staroverov, T. Keith, R. Kobayashi, J. Normand, 
 K. Raghavachari, A. Rendell, J. C. Burant, S. S. Iyengar, J. Tomasi, 
 M. Cossi, N. Rega, J. M. Millam, M. Klene, J. E. Knox, J. B. Cross, 
 V. Bakken, C. Adamo, J. Jaramillo, R. Gomperts, R. E. Stratmann, 
 O. Yazyev, A. J. Austin, R. Cammi, C. Pomelli, J. W. Ochterski, 
 R. L. Martin, K. Morokuma, V. G. Zakrzewski, G. A. Voth, 
 P. Salvador, J. J. Dannenberg, S. Dapprich, A. D. Daniels, 
 O. Farkas, J. B. Foresman, J. V. Ortiz, J. Cioslowski, 
 and D. J. Fox, Gaussian, Inc., Wallingford CT, 2013.
 
 ******************************************
 Gaussian 09:  AS64L-G09RevD.01 24-Apr-2013
                19-Jan-2019 
 ******************************************
 %Chk=BLIND02191_mB
 %Mem=1GB
 %NProcShared=48
 Will use up to   48 processors via shared memory.
 ---------------------------------------------
 #T M05/Gen test Massage SCF=(fermi,maxcyc=60)
 ---------------------------------------------
 -------
 M05 opt
 -------
 Symbolic Z-matrix:
 Charge =  0 Multiplicity = 1
 6                     0.9569    0.27417   4.5208 
 6                     0.20007   1.3018    5.1509 
 16                    0.73831  -1.44974   4.78323 
 16                   -1.12152   1.00408   6.29078 
 6                    -1.00923  -1.51172   5.07718 
 6                    -1.74369  -0.53752   5.67647 
 6                     1.93538   0.83845   3.72742 
 7                     0.53258   2.54226   4.88907 
 16                    1.8401    2.56426   3.85911 
 6                    -1.60405  -2.7369    4.65743 
 7                    -2.03897  -3.76112   4.32125 
 6                    -3.14054  -0.70762   5.90847 
 7                    -4.27372  -0.81491   6.14367 
 6                     2.91136   0.18476   2.93664 
 7                     3.72503  -0.33504   2.28947 
 
                    Distance matrix (angstroms):
                    1          2          3          4          5
     1  C    0.000000
     2  C    1.423315   0.000000
     3  S    1.757418   2.827694   0.000000
     4  S    2.825849   1.770477   3.428253   0.000000
     5  C    2.713774   3.063280   1.773167   2.795470   0.000000
     6  C    3.047557   2.727187   2.791121   1.772288   1.359281
     7  C    1.380327   2.291783   2.789903   3.992857   4.001979
     8  N    2.336642   1.310672   3.998700   2.658358   4.341342
     9  S    2.542129   2.439721   4.263822   4.137445   5.120151
    10  C    3.955208   4.450782   2.675676   4.110426   1.425163
    11  N    5.029770   5.597745   3.642685   5.237162   2.586817
    12  C    4.436049   3.971317   4.106384   2.674416   2.424897
    13  N    5.583831   5.047859   5.232040   3.642352   3.504263
    14  C    2.517432   3.674472   3.286888   5.309014   4.778168
    15  N    3.607292   4.826214   4.047461   6.425950   5.618639
                    6          7          8          9         10
     6  C    0.000000
     7  C    4.384939   0.000000
     8  N    3.909794   2.494036   0.000000
     9  S    5.076167   1.733444   1.664607   0.000000
    10  C    2.428007   5.116215   5.699860   6.371958   0.000000
    11  N    3.509330   6.107712   6.831389   7.434461   1.162408
    12  C    1.426163   5.736923   5.009263   6.301738   2.836178
    13  N    2.587713   6.864751   5.995430   7.349618   3.609722
    14  C    5.449573   1.416040   3.876636   2.767765   5.646781
    15  N    6.435818   2.578302   5.022796   3.797715   6.306769
                   11         12         13         14         15
    11  N    0.000000
    12  C    3.613393   0.000000
    13  N    4.122555   1.162293   0.000000
    14  C    6.480188   6.800997   7.931563   0.000000
    15  N    7.006418   7.769948   8.891861   1.162367   0.000000
 Symmetry turned off by external request.
 Framework group  C1[X(C8N4S3)]
 Deg. of freedom    39
 Rotational constants (GHZ):      0.7722167      0.3388923      0.2463240
   357 basis functions,   759 primitive gaussians,   387 cartesian basis functions
    62 alpha electrons       62 beta electrons
       nuclear repulsion energy      1166.1400401745 Hartrees.
 IMHF & INEx in M05                  599485                  400514
 NAtoms=   15 NActive=   15 NUniq=   15 SFac= 1.00D+00 NAtFMM=   60 NAOKFM=F Big=F
 PrsmSu:  requested number of processors reduced to:  34 ShMem   1 Linda.
 ExpMin= 3.99D-02 ExpMax= 1.11D+05 ExpMxC= 1.07D+03 IAcc=3 IRadAn=         5 AccDes= 0.00D+00
 Harris functional with IExCor= 1009 and IRadAn=       5 diagonalized for initial guess.
 HarFok:  IExCor= 1009 AccDes= 0.00D+00 IRadAn=         5 IDoV= 1 UseB2=F ITyADJ=14
 ICtDFT=  3500011 ScaDFX=  1.000000  1.000000  1.000000  1.000000
 FoFCou: FMM=F IPFlag=           0 FMFlag=      100000 FMFlg1=           0
         NFxFlg=           0 DoJE=T BraDBF=F KetDBF=T FulRan=T
         wScrn=  0.000000 ICntrl=     500 IOpCl=  0 I1Cent=   200000004 NGrid=           0
         NMat0=    1 NMatS0=      1 NMatT0=    0 NMatD0=    1 NMtDS0=    0 NMtDT0=    0
 Symmetry not used in FoFCou.
 SCF Done:  E(RM05) =  -1724.76146339     A.U. after   17 cycles
            NFock= 17  Conv=0.51D-08     -V/T= 2.0061

 **********************************************************************

            Population analysis using the SCF density.

 **********************************************************************

 Alpha  occ. eigenvalues --  -90.56430 -90.53636 -90.53183 -15.08621 -15.05416
 Alpha  occ. eigenvalues --  -15.04969 -15.04934 -10.89945 -10.89827 -10.89735
 Alpha  occ. eigenvalues --  -10.88752 -10.87413 -10.84946 -10.84332 -10.84311
 Alpha  occ. eigenvalues --   -8.57525  -8.55035  -8.54610  -6.40063  -6.39712
 Alpha  occ. eigenvalues --   -6.39400  -6.37597  -6.37282  -6.37163  -6.36853
 Alpha  occ. eigenvalues --   -6.36822  -6.36393  -1.20533  -1.12895  -1.12139
 Alpha  occ. eigenvalues --   -1.11338  -1.07643  -1.03801  -0.98824  -0.97396
 Alpha  occ. eigenvalues --   -0.88002  -0.84555  -0.82236  -0.73687  -0.71296
 Alpha  occ. eigenvalues --   -0.67838  -0.64612  -0.59530  -0.57258  -0.55386
 Alpha  occ. eigenvalues --   -0.53385  -0.52647  -0.52243  -0.51890  -0.50883
 Alpha  occ. eigenvalues --   -0.50387  -0.49356  -0.48215  -0.46804  -0.46075
 Alpha  occ. eigenvalues --   -0.45933  -0.45296  -0.43720  -0.43113  -0.39488
 Alpha  occ. eigenvalues --   -0.37627  -0.33119
 Alpha virt. eigenvalues --   -0.09329  -0.08268  -0.02098  -0.01262  -0.00502
 Alpha virt. eigenvalues --   -0.00362   0.00152   0.01254   0.02022   0.02229
 Alpha virt. eigenvalues --    0.02393   0.02956   0.03189   0.04003   0.04273
 Alpha virt. eigenvalues --    0.04486   0.05426   0.06005   0.06298   0.07067
 Alpha virt. eigenvalues --    0.07271   0.07525   0.07707   0.08290   0.08491
 Alpha virt. eigenvalues --    0.09374   0.10093   0.10399   0.10524   0.10815
 Alpha virt. eigenvalues --    0.11286   0.11392   0.11978   0.12525   0.13226
 Alpha virt. eigenvalues --    0.13487   0.13934   0.14453   0.15074   0.15190
 Alpha virt. eigenvalues --    0.15902   0.16278   0.16677   0.16812   0.17182
 Alpha virt. eigenvalues --    0.17359   0.17838   0.18616   0.19047   0.19561
 Alpha virt. eigenvalues --    0.19858   0.20241   0.20687   0.20947   0.21264
 Alpha virt. eigenvalues --    0.21883   0.22206   0.22579   0.22826   0.23611
 Alpha virt. eigenvalues --    0.23744   0.24118   0.24374   0.24701   0.25259
 Alpha virt. eigenvalues --    0.25696   0.25853   0.26225   0.26621   0.26751
 Alpha virt. eigenvalues --    0.27065   0.28334   0.29194   0.29662   0.30367
 Alpha virt. eigenvalues --    0.30713   0.32421   0.33454   0.34155   0.34715
 Alpha virt. eigenvalues --    0.34946   0.35469   0.36120   0.36936   0.37594
 Alpha virt. eigenvalues --    0.38153   0.39574   0.40728   0.41172   0.42049
 Alpha virt. eigenvalues --    0.42122   0.43483   0.44130   0.45738   0.45982
 Alpha virt. eigenvalues --    0.46956   0.48552   0.49570   0.50233   0.50593
 Alpha virt. eigenvalues --    0.51524   0.51858   0.53528   0.54167   0.54424
 Alpha virt. eigenvalues --    0.54702   0.55463   0.55736   0.55838   0.56452
 Alpha virt. eigenvalues --    0.57772   0.58140   0.58554   0.59220   0.60309
 Alpha virt. eigenvalues --    0.60553   0.61100   0.61586   0.62102   0.62711
 Alpha virt. eigenvalues --    0.63714   0.64722   0.64949   0.66006   0.66560
 Alpha virt. eigenvalues --    0.67688   0.68186   0.68807   0.70107   0.70421
 Alpha virt. eigenvalues --    0.71049   0.72864   0.73469   0.73855   0.75373
 Alpha virt. eigenvalues --    0.75566   0.76461   0.77062   0.77556   0.77841
 Alpha virt. eigenvalues --    0.78248   0.79252   0.79762   0.79881   0.81109
 Alpha virt. eigenvalues --    0.81536   0.82547   0.83276   0.83959   0.84871
 Alpha virt. eigenvalues --    0.85697   0.85939   0.87124   0.87247   0.88403
 Alpha virt. eigenvalues --    0.88459   0.89345   0.89667   0.89831   0.90732
 Alpha virt. eigenvalues --    0.91168   0.91722   0.92830   0.93721   0.94369
 Alpha virt. eigenvalues --    0.95433   0.95565   0.97325   0.98746   0.99308
 Alpha virt. eigenvalues --    0.99847   1.01206   1.02845   1.03576   1.04752
 Alpha virt. eigenvalues --    1.05758   1.06742   1.08039   1.08542   1.09638
 Alpha virt. eigenvalues --    1.10231   1.11402   1.13195   1.13608   1.14401
 Alpha virt. eigenvalues --    1.15324   1.17103   1.18345   1.20285   1.20630
 Alpha virt. eigenvalues --    1.21610   1.22702   1.23935   1.24223   1.26561
 Alpha virt. eigenvalues --    1.27345   1.29760   1.30250   1.32272   1.34124
 Alpha virt. eigenvalues --    1.37310   1.40083   1.40257   1.41567   1.42731
 Alpha virt. eigenvalues --    1.43615   1.45025   1.46461   1.47273   1.49370
 Alpha virt. eigenvalues --    1.49823   1.50473   1.51644   1.51868   1.52332
 Alpha virt. eigenvalues --    1.53716   1.54193   1.55432   1.56135   1.56448
 Alpha virt. eigenvalues --    1.56790   1.58488   1.59726   1.60389   1.60517
 Alpha virt. eigenvalues --    1.62129   1.63281   1.64924   1.66029   1.67548
 Alpha virt. eigenvalues --    1.68614   1.69175   1.70470   1.71321   1.74151
 Alpha virt. eigenvalues --    1.76826   1.77078   1.79016   1.79377   1.81041
 Alpha virt. eigenvalues --    1.82958   1.85919   1.88151   1.89700   1.90610
 Alpha virt. eigenvalues --    1.91367   1.94485   1.95006   1.97395   2.00539
 Alpha virt. eigenvalues --    2.00829   2.05449   2.07038   2.08350   2.08474
 Alpha virt. eigenvalues --    2.10897   2.13937   2.18609   2.20235   2.24596
 Alpha virt. eigenvalues --    2.27647   2.30685   2.37027   2.37401   2.38002
 Alpha virt. eigenvalues --    2.38279   2.39369   2.39930   2.40470   2.42151
 Alpha virt. eigenvalues --    2.42559   2.43757   2.45057   2.51018   2.54996
 Alpha virt. eigenvalues --    2.61157   2.64123   2.68329   2.71898   2.73264
 Alpha virt. eigenvalues --    2.76309   2.78780   2.81840   2.94680   2.99730
 Alpha virt. eigenvalues --    3.01876   3.09943   3.11450   3.15939   3.17849
 Alpha virt. eigenvalues --    3.24292   3.27128   3.35292   3.59305   3.74887
          Condensed to atoms (all electrons):
 Mulliken charges:
               1
     1  C    0.619985
     2  C   -0.108976
     3  S    0.374939
     4  S    0.296484
     5  C    1.040142
     6  C    1.131471
     7  C    0.786472
     8  N   -1.083164
     9  S    0.557619
    10  C   -1.130025
    11  N   -0.167962
    12  C   -1.100708
    13  N   -0.180392
    14  C   -0.852921
    15  N   -0.182963
 Sum of Mulliken charges =  -0.00000
 Mulliken charges with hydrogens summed into heavy atoms:
               1
     1  C    0.619985
     2  C   -0.108976
     3  S    0.374939
     4  S    0.296484
     5  C    1.040142
     6  C    1.131471
     7  C    0.786472
     8  N   -1.083164
     9  S    0.557619
    10  C   -1.130025
    11  N   -0.167962
    12  C   -1.100708
    13  N   -0.180392
    14  C   -0.852921
    15  N   -0.182963
 Electronic spatial extent (au):  <R**2>=          13975.0922
 Charge=              0.0000 electrons
 Dipole moment (field-independent basis, Debye):
    X=              2.7442    Y=              3.6204    Z=              1.1440  Tot=              4.6847

 Test job not archived.
 1\1\GINC-CHIMERA-NODE25\SP\RM05\Gen\C8N4S3\CONNORNM\19-Jan-2019\0\\#T 
 M05/Gen test Massage SCF=(fermi,maxcyc=60)\\M05 opt\\0,1\C,0,0.9568987
 1,0.27416658,4.5208036\C,0,0.20007154,1.30179643,5.1508958\S,0,0.73830
 797,-1.44974418,4.78322773\S,0,-1.12152139,1.00407531,6.29078289\C,0,-
 1.0092262,-1.511715,5.07717673\C,0,-1.74369271,-0.53752389,5.67647188\
 C,0,1.93537811,0.83845292,3.72741706\N,0,0.5325845,2.54225704,4.889070
 23\S,0,1.84010417,2.5642592,3.85910659\C,0,-1.60404879,-2.73690467,4.6
 5743153\N,0,-2.03896902,-3.76112042,4.3212478\C,0,-3.14054186,-0.70761
 821,5.90846826\N,0,-4.27372118,-0.81491438,6.14366665\C,0,2.91135515,0
 .18476292,2.93664108\N,0,3.72503139,-0.33503594,2.28946565\\Version=AS
 64L-G09RevD.01\HF=-1724.7614634\RMSD=5.148e-09\Dipole=1.079671,1.42436
 ,0.4500805\Quadrupole=-11.8005087,-0.6356603,12.436169,-2.4236839,16.5
 133768,8.5565565\PG=C01 [X(C8N4S3)]\\@


 AND THIS OUR LIFE, EXEMPT FROM PUBLIC HAUNT,
 FINDS TONGUES IN TREES, BOOKS IN THE RUNNING BROOKS,
 SERMONS IN STONES, AND GOOD IN EVERYTHING.
 I WOULD NOT CHANGE IT. -- W. SHAKESPEARE
 AS YOU LIKE IT, ACT II, SCENE 1.
 Job cpu time:       0 days  1 hours 36 minutes 22.6 seconds.
 File lengths (MBytes):  RWF=     58 Int=      0 D2E=      0 Chk=      6 Scr=      1
 Normal termination of Gaussian 09 at Sat Jan 19 11:10:36 2019.
