 Entering Gaussian System, Link 0=/data/szalewicgrp/connornm/opt/Gaussian/g09-M05-par/g09/g09
 AtFile(1): blind-aug.gbs
 Initial command:
 /data/szalewicgrp/connornm/opt/Gaussian/g09-M05-par/g09/l1.exe "/scratch/local/Gau-7353.inp" -scrdir="/scratch/local/"
 Entering Link 1 = /data/szalewicgrp/connornm/opt/Gaussian/g09-M05-par/g09/l1.exe PID=      7354.
  
 Copyright (c) 1988,1990,1992,1993,1995,1998,2003,2009,2013,
            Gaussian, Inc.  All Rights Reserved.
  
 This is part of the Gaussian(R) 09 program.  It is based on
 the Gaussian(R) 03 system (copyright 2003, Gaussian, Inc.),
 the Gaussian(R) 98 system (copyright 1998, Gaussian, Inc.),
 the Gaussian(R) 94 system (copyright 1995, Gaussian, Inc.),
 the Gaussian 92(TM) system (copyright 1992, Gaussian, Inc.),
 the Gaussian 90(TM) system (copyright 1990, Gaussian, Inc.),
 the Gaussian 88(TM) system (copyright 1988, Gaussian, Inc.),
 the Gaussian 86(TM) system (copyright 1986, Carnegie Mellon
 University), and the Gaussian 82(TM) system (copyright 1983,
 Carnegie Mellon University). Gaussian is a federally registered
 trademark of Gaussian, Inc.
  
 This software contains proprietary and confidential information,
 including trade secrets, belonging to Gaussian, Inc.
  
 This software is provided under written license and may be
 used, copied, transmitted, or stored only in accord with that
 written license.
  
 The following legend is applicable only to US Government
 contracts under FAR:
  
                    RESTRICTED RIGHTS LEGEND
  
 Use, reproduction and disclosure by the US Government is
 subject to restrictions as set forth in subparagraphs (a)
 and (c) of the Commercial Computer Software - Restricted
 Rights clause in FAR 52.227-19.
  
 Gaussian, Inc.
 340 Quinnipiac St., Bldg. 40, Wallingford CT 06492
  
  
 ---------------------------------------------------------------
 Warning -- This program may not be used in any manner that
 competes with the business of Gaussian, Inc. or will provide
 assistance to any competitor of Gaussian, Inc.  The licensee
 of this program is prohibited from giving any competitor of
 Gaussian, Inc. access to this program.  By using this program,
 the user acknowledges that Gaussian, Inc. is engaged in the
 business of creating and licensing software in the field of
 computational chemistry and represents and warrants to the
 licensee that it is not a competitor of Gaussian, Inc. and that
 it will not use this program in any manner prohibited above.
 ---------------------------------------------------------------
  

 Cite this work as:
 Gaussian 09, Revision D.01,
 M. J. Frisch, G. W. Trucks, H. B. Schlegel, G. E. Scuseria, 
 M. A. Robb, J. R. Cheeseman, G. Scalmani, V. Barone, B. Mennucci, 
 G. A. Petersson, H. Nakatsuji, M. Caricato, X. Li, H. P. Hratchian, 
 A. F. Izmaylov, J. Bloino, G. Zheng, J. L. Sonnenberg, M. Hada, 
 M. Ehara, K. Toyota, R. Fukuda, J. Hasegawa, M. Ishida, T. Nakajima, 
 Y. Honda, O. Kitao, H. Nakai, T. Vreven, J. A. Montgomery, Jr., 
 J. E. Peralta, F. Ogliaro, M. Bearpark, J. J. Heyd, E. Brothers, 
 K. N. Kudin, V. N. Staroverov, T. Keith, R. Kobayashi, J. Normand, 
 K. Raghavachari, A. Rendell, J. C. Burant, S. S. Iyengar, J. Tomasi, 
 M. Cossi, N. Rega, J. M. Millam, M. Klene, J. E. Knox, J. B. Cross, 
 V. Bakken, C. Adamo, J. Jaramillo, R. Gomperts, R. E. Stratmann, 
 O. Yazyev, A. J. Austin, R. Cammi, C. Pomelli, J. W. Ochterski, 
 R. L. Martin, K. Morokuma, V. G. Zakrzewski, G. A. Voth, 
 P. Salvador, J. J. Dannenberg, S. Dapprich, A. D. Daniels, 
 O. Farkas, J. B. Foresman, J. V. Ortiz, J. Cioslowski, 
 and D. J. Fox, Gaussian, Inc., Wallingford CT, 2013.
 
 ******************************************
 Gaussian 09:  AS64L-G09RevD.01 24-Apr-2013
                19-Jan-2019 
 ******************************************
 %Chk=BLIND00485_mA
 %Mem=1GB
 %NProcShared=48
 Will use up to   48 processors via shared memory.
 ---------------------------------------------
 #T M05/Gen test Massage SCF=(fermi,maxcyc=60)
 ---------------------------------------------
 -------
 M05 opt
 -------
 Symbolic Z-matrix:
 Charge =  0 Multiplicity = 1
 6                    -0.53357  -0.84785  -0.1938 
 6                    -1.33346   0.24264   0.24985 
 16                    0.95651  -0.70167  -1.11403 
 16                   -0.93417   1.94466  -0.02998 
 6                     1.5889    0.82163  -0.46308 
 6                     0.83652   1.86974  -0.03524 
 6                    -1.14279  -2.03885   0.14632 
 7                    -2.44967  -0.04333   0.87447 
 16                   -2.6406   -1.6953    0.94843 
 6                     3.01277   0.88242  -0.46463 
 7                     4.1743    0.8945   -0.50805 
 6                     1.4472    3.07241   0.42803 
 7                     1.90091   4.08095   0.78566 
 6                    -0.69886  -3.35851  -0.11172 
 7                    -0.35443  -4.44837  -0.32305 
 
                    Distance matrix (angstroms):
                    1          2          3          4          5
     1  C    0.000000
     2  C    1.423315   0.000000
     3  S    1.757418   2.827694   0.000000
     4  S    2.825849   1.770477   3.428253   0.000000
     5  C    2.713774   3.063280   1.773167   2.795470   0.000000
     6  C    3.047557   2.727187   2.791121   1.772288   1.359281
     7  C    1.380327   2.291783   2.789903   3.992857   4.001979
     8  N    2.336642   1.310672   3.998700   2.658358   4.341342
     9  S    2.542129   2.439721   4.263822   4.137445   5.120151
    10  C    3.955208   4.450782   2.675676   4.110426   1.425163
    11  N    5.029770   5.597745   3.642685   5.237162   2.586817
    12  C    4.436049   3.971317   4.106384   2.674416   2.424897
    13  N    5.583831   5.047859   5.232040   3.642352   3.504263
    14  C    2.517432   3.674472   3.286888   5.309014   4.778168
    15  N    3.607292   4.826214   4.047461   6.425950   5.618639
                    6          7          8          9         10
     6  C    0.000000
     7  C    4.384939   0.000000
     8  N    3.909794   2.494036   0.000000
     9  S    5.076167   1.733444   1.664607   0.000000
    10  C    2.428007   5.116215   5.699860   6.371958   0.000000
    11  N    3.509330   6.107712   6.831389   7.434461   1.162408
    12  C    1.426163   5.736923   5.009263   6.301738   2.836178
    13  N    2.587713   6.864751   5.995430   7.349618   3.609722
    14  C    5.449573   1.416040   3.876636   2.767765   5.646781
    15  N    6.435818   2.578302   5.022796   3.797715   6.306769
                   11         12         13         14         15
    11  N    0.000000
    12  C    3.613393   0.000000
    13  N    4.122555   1.162293   0.000000
    14  C    6.480188   6.800997   7.931563   0.000000
    15  N    7.006418   7.769948   8.891861   1.162367   0.000000
 Symmetry turned off by external request.
 Framework group  C1[X(C8N4S3)]
 Deg. of freedom    39
 Rotational constants (GHZ):      0.7722167      0.3388923      0.2463240
   357 basis functions,   759 primitive gaussians,   387 cartesian basis functions
    62 alpha electrons       62 beta electrons
       nuclear repulsion energy      1166.1400388478 Hartrees.
 IMHF & INEx in M05                  599485                  400514
 NAtoms=   15 NActive=   15 NUniq=   15 SFac= 1.00D+00 NAtFMM=   60 NAOKFM=F Big=F
 PrsmSu:  requested number of processors reduced to:  34 ShMem   1 Linda.
 ExpMin= 3.99D-02 ExpMax= 1.11D+05 ExpMxC= 1.07D+03 IAcc=3 IRadAn=         5 AccDes= 0.00D+00
 Harris functional with IExCor= 1009 and IRadAn=       5 diagonalized for initial guess.
 HarFok:  IExCor= 1009 AccDes= 0.00D+00 IRadAn=         5 IDoV= 1 UseB2=F ITyADJ=14
 ICtDFT=  3500011 ScaDFX=  1.000000  1.000000  1.000000  1.000000
 FoFCou: FMM=F IPFlag=           0 FMFlag=      100000 FMFlg1=           0
         NFxFlg=           0 DoJE=T BraDBF=F KetDBF=T FulRan=T
         wScrn=  0.000000 ICntrl=     500 IOpCl=  0 I1Cent=   200000004 NGrid=           0
         NMat0=    1 NMatS0=      1 NMatT0=    0 NMatD0=    1 NMtDS0=    0 NMtDT0=    0
 Symmetry not used in FoFCou.
 SCF Done:  E(RM05) =  -1724.76148652     A.U. after   17 cycles
            NFock= 17  Conv=0.51D-08     -V/T= 2.0061

 **********************************************************************

            Population analysis using the SCF density.

 **********************************************************************

 Alpha  occ. eigenvalues --  -90.56430 -90.53637 -90.53182 -15.08622 -15.05416
 Alpha  occ. eigenvalues --  -15.04969 -15.04934 -10.89945 -10.89827 -10.89736
 Alpha  occ. eigenvalues --  -10.88752 -10.87413 -10.84946 -10.84332 -10.84311
 Alpha  occ. eigenvalues --   -8.57526  -8.55036  -8.54609  -6.40063  -6.39713
 Alpha  occ. eigenvalues --   -6.39401  -6.37598  -6.37283  -6.37162  -6.36853
 Alpha  occ. eigenvalues --   -6.36823  -6.36392  -1.20533  -1.12895  -1.12139
 Alpha  occ. eigenvalues --   -1.11337  -1.07643  -1.03801  -0.98824  -0.97396
 Alpha  occ. eigenvalues --   -0.88002  -0.84555  -0.82236  -0.73687  -0.71296
 Alpha  occ. eigenvalues --   -0.67838  -0.64612  -0.59530  -0.57258  -0.55386
 Alpha  occ. eigenvalues --   -0.53385  -0.52648  -0.52243  -0.51890  -0.50883
 Alpha  occ. eigenvalues --   -0.50387  -0.49357  -0.48215  -0.46805  -0.46074
 Alpha  occ. eigenvalues --   -0.45933  -0.45296  -0.43720  -0.43113  -0.39488
 Alpha  occ. eigenvalues --   -0.37628  -0.33120
 Alpha virt. eigenvalues --   -0.09329  -0.08268  -0.02098  -0.01262  -0.00502
 Alpha virt. eigenvalues --   -0.00361   0.00153   0.01254   0.02022   0.02230
 Alpha virt. eigenvalues --    0.02394   0.02957   0.03190   0.04004   0.04276
 Alpha virt. eigenvalues --    0.04486   0.05428   0.06008   0.06299   0.07067
 Alpha virt. eigenvalues --    0.07271   0.07527   0.07706   0.08290   0.08490
 Alpha virt. eigenvalues --    0.09374   0.10096   0.10393   0.10525   0.10813
 Alpha virt. eigenvalues --    0.11286   0.11394   0.11981   0.12528   0.13227
 Alpha virt. eigenvalues --    0.13494   0.13936   0.14454   0.15073   0.15190
 Alpha virt. eigenvalues --    0.15903   0.16275   0.16678   0.16812   0.17189
 Alpha virt. eigenvalues --    0.17359   0.17841   0.18616   0.19051   0.19563
 Alpha virt. eigenvalues --    0.19868   0.20242   0.20686   0.20943   0.21262
 Alpha virt. eigenvalues --    0.21881   0.22205   0.22581   0.22822   0.23613
 Alpha virt. eigenvalues --    0.23748   0.24116   0.24368   0.24703   0.25257
 Alpha virt. eigenvalues --    0.25696   0.25851   0.26229   0.26622   0.26749
 Alpha virt. eigenvalues --    0.27067   0.28335   0.29199   0.29662   0.30369
 Alpha virt. eigenvalues --    0.30713   0.32419   0.33457   0.34157   0.34717
 Alpha virt. eigenvalues --    0.34947   0.35470   0.36121   0.36937   0.37593
 Alpha virt. eigenvalues --    0.38154   0.39578   0.40728   0.41174   0.42049
 Alpha virt. eigenvalues --    0.42120   0.43485   0.44135   0.45739   0.45980
 Alpha virt. eigenvalues --    0.46966   0.48554   0.49573   0.50234   0.50595
 Alpha virt. eigenvalues --    0.51526   0.51858   0.53529   0.54168   0.54421
 Alpha virt. eigenvalues --    0.54703   0.55465   0.55731   0.55837   0.56449
 Alpha virt. eigenvalues --    0.57769   0.58139   0.58554   0.59219   0.60310
 Alpha virt. eigenvalues --    0.60551   0.61101   0.61588   0.62106   0.62711
 Alpha virt. eigenvalues --    0.63716   0.64720   0.64954   0.66007   0.66559
 Alpha virt. eigenvalues --    0.67686   0.68191   0.68807   0.70104   0.70415
 Alpha virt. eigenvalues --    0.71046   0.72861   0.73471   0.73855   0.75368
 Alpha virt. eigenvalues --    0.75565   0.76454   0.77064   0.77555   0.77843
 Alpha virt. eigenvalues --    0.78246   0.79254   0.79761   0.79876   0.81111
 Alpha virt. eigenvalues --    0.81536   0.82546   0.83278   0.83957   0.84871
 Alpha virt. eigenvalues --    0.85696   0.85940   0.87125   0.87251   0.88403
 Alpha virt. eigenvalues --    0.88459   0.89345   0.89667   0.89832   0.90731
 Alpha virt. eigenvalues --    0.91171   0.91726   0.92831   0.93722   0.94366
 Alpha virt. eigenvalues --    0.95431   0.95562   0.97326   0.98745   0.99312
 Alpha virt. eigenvalues --    0.99848   1.01204   1.02846   1.03577   1.04750
 Alpha virt. eigenvalues --    1.05759   1.06742   1.08037   1.08537   1.09635
 Alpha virt. eigenvalues --    1.10236   1.11400   1.13194   1.13610   1.14403
 Alpha virt. eigenvalues --    1.15321   1.17099   1.18342   1.20284   1.20632
 Alpha virt. eigenvalues --    1.21609   1.22699   1.23936   1.24221   1.26560
 Alpha virt. eigenvalues --    1.27344   1.29759   1.30251   1.32268   1.34124
 Alpha virt. eigenvalues --    1.37312   1.40084   1.40259   1.41569   1.42729
 Alpha virt. eigenvalues --    1.43619   1.45025   1.46465   1.47271   1.49369
 Alpha virt. eigenvalues --    1.49822   1.50474   1.51643   1.51867   1.52332
 Alpha virt. eigenvalues --    1.53716   1.54193   1.55431   1.56136   1.56448
 Alpha virt. eigenvalues --    1.56792   1.58487   1.59726   1.60390   1.60516
 Alpha virt. eigenvalues --    1.62132   1.63280   1.64925   1.66029   1.67544
 Alpha virt. eigenvalues --    1.68614   1.69177   1.70471   1.71322   1.74151
 Alpha virt. eigenvalues --    1.76825   1.77076   1.79015   1.79376   1.81042
 Alpha virt. eigenvalues --    1.82959   1.85919   1.88154   1.89702   1.90607
 Alpha virt. eigenvalues --    1.91372   1.94486   1.95004   1.97393   2.00539
 Alpha virt. eigenvalues --    2.00828   2.05447   2.07037   2.08351   2.08475
 Alpha virt. eigenvalues --    2.10896   2.13938   2.18606   2.20234   2.24594
 Alpha virt. eigenvalues --    2.27646   2.30684   2.37027   2.37402   2.38001
 Alpha virt. eigenvalues --    2.38279   2.39369   2.39930   2.40470   2.42151
 Alpha virt. eigenvalues --    2.42559   2.43756   2.45057   2.51017   2.54995
 Alpha virt. eigenvalues --    2.61158   2.64123   2.68330   2.71898   2.73263
 Alpha virt. eigenvalues --    2.76308   2.78779   2.81841   2.94680   2.99730
 Alpha virt. eigenvalues --    3.01875   3.09942   3.11450   3.15940   3.17851
 Alpha virt. eigenvalues --    3.24294   3.27129   3.35293   3.59308   3.74891
          Condensed to atoms (all electrons):
 Mulliken charges:
               1
     1  C    0.618515
     2  C   -0.108176
     3  S    0.373918
     4  S    0.296422
     5  C    1.040201
     6  C    1.131923
     7  C    0.786981
     8  N   -1.083179
     9  S    0.557634
    10  C   -1.130076
    11  N   -0.167912
    12  C   -1.100347
    13  N   -0.180440
    14  C   -0.852436
    15  N   -0.183029
 Sum of Mulliken charges =  -0.00000
 Mulliken charges with hydrogens summed into heavy atoms:
               1
     1  C    0.618515
     2  C   -0.108176
     3  S    0.373918
     4  S    0.296422
     5  C    1.040201
     6  C    1.131923
     7  C    0.786981
     8  N   -1.083179
     9  S    0.557634
    10  C   -1.130076
    11  N   -0.167912
    12  C   -1.100347
    13  N   -0.180440
    14  C   -0.852436
    15  N   -0.183029
 Electronic spatial extent (au):  <R**2>=           4013.7185
 Charge=             -0.0000 electrons
 Dipole moment (field-independent basis, Debye):
    X=             -4.5570    Y=             -1.0001    Z=             -0.4285  Tot=              4.6851

 Test job not archived.
 1\1\GINC-CHIMERA-NODE62\SP\RM05\Gen\C8N4S3\CONNORNM\19-Jan-2019\0\\#T 
 M05/Gen test Massage SCF=(fermi,maxcyc=60)\\M05 opt\\0,1\C,0,-0.533570
 31,-0.84785104,-0.19380465\C,0,-1.33345912,0.24264203,0.24984994\S,0,0
 .95651075,-0.7016747,-1.11402612\S,0,-0.93417215,1.94465716,-0.0299763
 8\C,0,1.58890036,0.82163447,-0.46307709\C,0,0.83652351,1.86974054,-0.0
 3523739\C,0,-1.14278573,-2.03884737,0.14632408\N,0,-2.44966959,-0.0433
 3421,0.87447126\S,0,-2.64059593,-1.69530115,0.9484258\C,0,3.01276583,0
 .88241562,-0.46463035\N,0,4.17429999,0.89450187,-0.50805099\C,0,1.4471
 9635,3.07240687,0.42802744\N,0,1.90091223,4.08095211,0.78566486\C,0,-0
 .69885668,-3.35850962,-0.11172046\N,0,-0.35442607,-4.44837287,-0.32305
 328\\Version=AS64L-G09RevD.01\HF=-1724.7614865\RMSD=5.113e-09\Dipole=-
 1.7928764,-0.3934684,-0.1685934\Quadrupole=-1.35073,-9.3680316,10.7187
 616,-3.3591733,-0.5853542,-4.9938315\PG=C01 [X(C8N4S3)]\\@


 NOTHING WILL BE ATTEMPTED IF ALL POSSIBLE OBJECTIONS
 MUST FIRST BE OVERCOME.

                               -- THE GOLDEN PRINCIPLE,
                    PAUL DICKSON'S "THE OFFICIAL RULES"
 Job cpu time:       0 days  2 hours  3 minutes 29.8 seconds.
 File lengths (MBytes):  RWF=     58 Int=      0 D2E=      0 Chk=      6 Scr=      1
 Normal termination of Gaussian 09 at Sat Jan 19 11:17:28 2019.
