 Entering Gaussian System, Link 0=/data/szalewicgrp/connornm/opt/Gaussian/g09-M05-par/g09/g09
 AtFile(1): blind-aug.gbs
 Initial command:
 /data/szalewicgrp/connornm/opt/Gaussian/g09-M05-par/g09/l1.exe "/scratch/local/Gau-27683.inp" -scrdir="/scratch/local/"
 Entering Link 1 = /data/szalewicgrp/connornm/opt/Gaussian/g09-M05-par/g09/l1.exe PID=     27684.
  
 Copyright (c) 1988,1990,1992,1993,1995,1998,2003,2009,2013,
            Gaussian, Inc.  All Rights Reserved.
  
 This is part of the Gaussian(R) 09 program.  It is based on
 the Gaussian(R) 03 system (copyright 2003, Gaussian, Inc.),
 the Gaussian(R) 98 system (copyright 1998, Gaussian, Inc.),
 the Gaussian(R) 94 system (copyright 1995, Gaussian, Inc.),
 the Gaussian 92(TM) system (copyright 1992, Gaussian, Inc.),
 the Gaussian 90(TM) system (copyright 1990, Gaussian, Inc.),
 the Gaussian 88(TM) system (copyright 1988, Gaussian, Inc.),
 the Gaussian 86(TM) system (copyright 1986, Carnegie Mellon
 University), and the Gaussian 82(TM) system (copyright 1983,
 Carnegie Mellon University). Gaussian is a federally registered
 trademark of Gaussian, Inc.
  
 This software contains proprietary and confidential information,
 including trade secrets, belonging to Gaussian, Inc.
  
 This software is provided under written license and may be
 used, copied, transmitted, or stored only in accord with that
 written license.
  
 The following legend is applicable only to US Government
 contracts under FAR:
  
                    RESTRICTED RIGHTS LEGEND
  
 Use, reproduction and disclosure by the US Government is
 subject to restrictions as set forth in subparagraphs (a)
 and (c) of the Commercial Computer Software - Restricted
 Rights clause in FAR 52.227-19.
  
 Gaussian, Inc.
 340 Quinnipiac St., Bldg. 40, Wallingford CT 06492
  
  
 ---------------------------------------------------------------
 Warning -- This program may not be used in any manner that
 competes with the business of Gaussian, Inc. or will provide
 assistance to any competitor of Gaussian, Inc.  The licensee
 of this program is prohibited from giving any competitor of
 Gaussian, Inc. access to this program.  By using this program,
 the user acknowledges that Gaussian, Inc. is engaged in the
 business of creating and licensing software in the field of
 computational chemistry and represents and warrants to the
 licensee that it is not a competitor of Gaussian, Inc. and that
 it will not use this program in any manner prohibited above.
 ---------------------------------------------------------------
  

 Cite this work as:
 Gaussian 09, Revision D.01,
 M. J. Frisch, G. W. Trucks, H. B. Schlegel, G. E. Scuseria, 
 M. A. Robb, J. R. Cheeseman, G. Scalmani, V. Barone, B. Mennucci, 
 G. A. Petersson, H. Nakatsuji, M. Caricato, X. Li, H. P. Hratchian, 
 A. F. Izmaylov, J. Bloino, G. Zheng, J. L. Sonnenberg, M. Hada, 
 M. Ehara, K. Toyota, R. Fukuda, J. Hasegawa, M. Ishida, T. Nakajima, 
 Y. Honda, O. Kitao, H. Nakai, T. Vreven, J. A. Montgomery, Jr., 
 J. E. Peralta, F. Ogliaro, M. Bearpark, J. J. Heyd, E. Brothers, 
 K. N. Kudin, V. N. Staroverov, T. Keith, R. Kobayashi, J. Normand, 
 K. Raghavachari, A. Rendell, J. C. Burant, S. S. Iyengar, J. Tomasi, 
 M. Cossi, N. Rega, J. M. Millam, M. Klene, J. E. Knox, J. B. Cross, 
 V. Bakken, C. Adamo, J. Jaramillo, R. Gomperts, R. E. Stratmann, 
 O. Yazyev, A. J. Austin, R. Cammi, C. Pomelli, J. W. Ochterski, 
 R. L. Martin, K. Morokuma, V. G. Zakrzewski, G. A. Voth, 
 P. Salvador, J. J. Dannenberg, S. Dapprich, A. D. Daniels, 
 O. Farkas, J. B. Foresman, J. V. Ortiz, J. Cioslowski, 
 and D. J. Fox, Gaussian, Inc., Wallingford CT, 2013.
 
 ******************************************
 Gaussian 09:  AS64L-G09RevD.01 24-Apr-2013
                19-Jan-2019 
 ******************************************
 %Chk=BLIND00262_mA
 %Mem=1GB
 %NProcShared=48
 Will use up to   48 processors via shared memory.
 ---------------------------------------------
 #T M05/Gen test Massage SCF=(fermi,maxcyc=60)
 ---------------------------------------------
 -------
 M05 opt
 -------
 Symbolic Z-matrix:
 Charge =  0 Multiplicity = 1
 6                    -0.42252   0.9148   -0.16039 
 6                     0.38215   0.45866  -1.24218 
 16                   -1.32606  -0.11998   0.93568 
 16                    0.63108  -1.24774  -1.64321 
 6                    -0.26305  -1.53817   0.98943 
 6                     0.51084  -1.98362  -0.03541 
 6                    -0.44282   2.29491  -0.1468 
 7                     0.94219   1.36783  -2.00219 
 16                    0.50305   2.88428  -1.47451 
 6                    -0.31917  -2.2326    2.23269 
 7                    -0.41669  -2.77796   3.25459 
 6                     1.2963   -3.16662   0.09686 
 7                     1.92875  -4.14033   0.15003 
 6                    -1.12513   3.15535   0.74723 
 7                    -1.68579   3.87642   1.46613 
 
                    Distance matrix (angstroms):
                    1          2          3          4          5
     1  C    0.000000
     2  C    1.423315   0.000000
     3  S    1.757418   2.827694   0.000000
     4  S    2.825849   1.770477   3.428253   0.000000
     5  C    2.713774   3.063280   1.773167   2.795470   0.000000
     6  C    3.047557   2.727187   2.791121   1.772288   1.359281
     7  C    1.380327   2.291783   2.789903   3.992857   4.001979
     8  N    2.336642   1.310672   3.998700   2.658358   4.341342
     9  S    2.542129   2.439721   4.263822   4.137445   5.120151
    10  C    3.955208   4.450782   2.675676   4.110426   1.425163
    11  N    5.029770   5.597745   3.642685   5.237162   2.586817
    12  C    4.436049   3.971317   4.106384   2.674416   2.424897
    13  N    5.583831   5.047859   5.232040   3.642352   3.504263
    14  C    2.517432   3.674472   3.286888   5.309014   4.778168
    15  N    3.607292   4.826214   4.047461   6.425950   5.618639
                    6          7          8          9         10
     6  C    0.000000
     7  C    4.384939   0.000000
     8  N    3.909794   2.494036   0.000000
     9  S    5.076167   1.733444   1.664607   0.000000
    10  C    2.428007   5.116215   5.699860   6.371958   0.000000
    11  N    3.509330   6.107712   6.831389   7.434461   1.162408
    12  C    1.426163   5.736923   5.009263   6.301738   2.836178
    13  N    2.587713   6.864751   5.995430   7.349618   3.609722
    14  C    5.449573   1.416040   3.876636   2.767765   5.646781
    15  N    6.435818   2.578302   5.022796   3.797715   6.306769
                   11         12         13         14         15
    11  N    0.000000
    12  C    3.613393   0.000000
    13  N    4.122555   1.162293   0.000000
    14  C    6.480188   6.800997   7.931563   0.000000
    15  N    7.006418   7.769948   8.891861   1.162367   0.000000
 Symmetry turned off by external request.
 Framework group  C1[X(C8N4S3)]
 Deg. of freedom    39
 Rotational constants (GHZ):      0.7722167      0.3388923      0.2463240
   357 basis functions,   759 primitive gaussians,   387 cartesian basis functions
    62 alpha electrons       62 beta electrons
       nuclear repulsion energy      1166.1400398833 Hartrees.
 IMHF & INEx in M05                  599485                  400514
 NAtoms=   15 NActive=   15 NUniq=   15 SFac= 1.00D+00 NAtFMM=   60 NAOKFM=F Big=F
 PrsmSu:  requested number of processors reduced to:  34 ShMem   1 Linda.
 ExpMin= 3.99D-02 ExpMax= 1.11D+05 ExpMxC= 1.07D+03 IAcc=3 IRadAn=         5 AccDes= 0.00D+00
 Harris functional with IExCor= 1009 and IRadAn=       5 diagonalized for initial guess.
 HarFok:  IExCor= 1009 AccDes= 0.00D+00 IRadAn=         5 IDoV= 1 UseB2=F ITyADJ=14
 ICtDFT=  3500011 ScaDFX=  1.000000  1.000000  1.000000  1.000000
 FoFCou: FMM=F IPFlag=           0 FMFlag=      100000 FMFlg1=           0
         NFxFlg=           0 DoJE=T BraDBF=F KetDBF=T FulRan=T
         wScrn=  0.000000 ICntrl=     500 IOpCl=  0 I1Cent=   200000004 NGrid=           0
         NMat0=    1 NMatS0=      1 NMatT0=    0 NMatD0=    1 NMtDS0=    0 NMtDT0=    0
 Symmetry not used in FoFCou.
 SCF Done:  E(RM05) =  -1724.76149276     A.U. after   17 cycles
            NFock= 17  Conv=0.51D-08     -V/T= 2.0061

 **********************************************************************

            Population analysis using the SCF density.

 **********************************************************************

 Alpha  occ. eigenvalues --  -90.56430 -90.53636 -90.53182 -15.08622 -15.05416
 Alpha  occ. eigenvalues --  -15.04970 -15.04934 -10.89945 -10.89827 -10.89735
 Alpha  occ. eigenvalues --  -10.88751 -10.87413 -10.84946 -10.84332 -10.84311
 Alpha  occ. eigenvalues --   -8.57525  -8.55036  -8.54609  -6.40062  -6.39712
 Alpha  occ. eigenvalues --   -6.39400  -6.37597  -6.37283  -6.37163  -6.36853
 Alpha  occ. eigenvalues --   -6.36822  -6.36392  -1.20533  -1.12895  -1.12138
 Alpha  occ. eigenvalues --   -1.11338  -1.07643  -1.03801  -0.98824  -0.97396
 Alpha  occ. eigenvalues --   -0.88002  -0.84555  -0.82236  -0.73687  -0.71296
 Alpha  occ. eigenvalues --   -0.67838  -0.64612  -0.59530  -0.57258  -0.55386
 Alpha  occ. eigenvalues --   -0.53385  -0.52647  -0.52243  -0.51890  -0.50883
 Alpha  occ. eigenvalues --   -0.50387  -0.49356  -0.48216  -0.46804  -0.46075
 Alpha  occ. eigenvalues --   -0.45933  -0.45296  -0.43720  -0.43113  -0.39488
 Alpha  occ. eigenvalues --   -0.37627  -0.33120
 Alpha virt. eigenvalues --   -0.09329  -0.08268  -0.02098  -0.01263  -0.00504
 Alpha virt. eigenvalues --   -0.00362   0.00154   0.01255   0.02018   0.02227
 Alpha virt. eigenvalues --    0.02394   0.02956   0.03189   0.04001   0.04275
 Alpha virt. eigenvalues --    0.04487   0.05428   0.06005   0.06297   0.07066
 Alpha virt. eigenvalues --    0.07271   0.07524   0.07708   0.08289   0.08490
 Alpha virt. eigenvalues --    0.09375   0.10092   0.10393   0.10524   0.10808
 Alpha virt. eigenvalues --    0.11289   0.11392   0.11980   0.12527   0.13229
 Alpha virt. eigenvalues --    0.13485   0.13937   0.14457   0.15075   0.15189
 Alpha virt. eigenvalues --    0.15903   0.16280   0.16677   0.16815   0.17189
 Alpha virt. eigenvalues --    0.17363   0.17842   0.18612   0.19045   0.19559
 Alpha virt. eigenvalues --    0.19865   0.20239   0.20680   0.20930   0.21266
 Alpha virt. eigenvalues --    0.21874   0.22206   0.22586   0.22817   0.23617
 Alpha virt. eigenvalues --    0.23748   0.24112   0.24374   0.24702   0.25261
 Alpha virt. eigenvalues --    0.25694   0.25851   0.26223   0.26626   0.26742
 Alpha virt. eigenvalues --    0.27071   0.28332   0.29192   0.29663   0.30362
 Alpha virt. eigenvalues --    0.30710   0.32418   0.33456   0.34151   0.34712
 Alpha virt. eigenvalues --    0.34952   0.35470   0.36120   0.36937   0.37592
 Alpha virt. eigenvalues --    0.38152   0.39580   0.40729   0.41169   0.42049
 Alpha virt. eigenvalues --    0.42117   0.43488   0.44131   0.45734   0.45981
 Alpha virt. eigenvalues --    0.46959   0.48559   0.49572   0.50242   0.50598
 Alpha virt. eigenvalues --    0.51522   0.51856   0.53527   0.54166   0.54423
 Alpha virt. eigenvalues --    0.54700   0.55469   0.55730   0.55839   0.56453
 Alpha virt. eigenvalues --    0.57773   0.58143   0.58553   0.59216   0.60313
 Alpha virt. eigenvalues --    0.60550   0.61100   0.61588   0.62107   0.62708
 Alpha virt. eigenvalues --    0.63717   0.64719   0.64955   0.66009   0.66557
 Alpha virt. eigenvalues --    0.67688   0.68190   0.68804   0.70106   0.70414
 Alpha virt. eigenvalues --    0.71049   0.72863   0.73476   0.73852   0.75375
 Alpha virt. eigenvalues --    0.75563   0.76456   0.77061   0.77552   0.77842
 Alpha virt. eigenvalues --    0.78244   0.79257   0.79761   0.79878   0.81105
 Alpha virt. eigenvalues --    0.81537   0.82546   0.83273   0.83956   0.84871
 Alpha virt. eigenvalues --    0.85699   0.85938   0.87124   0.87246   0.88402
 Alpha virt. eigenvalues --    0.88459   0.89344   0.89666   0.89830   0.90729
 Alpha virt. eigenvalues --    0.91171   0.91724   0.92828   0.93718   0.94366
 Alpha virt. eigenvalues --    0.95431   0.95565   0.97326   0.98741   0.99310
 Alpha virt. eigenvalues --    0.99841   1.01202   1.02850   1.03572   1.04750
 Alpha virt. eigenvalues --    1.05759   1.06740   1.08038   1.08540   1.09633
 Alpha virt. eigenvalues --    1.10231   1.11402   1.13198   1.13603   1.14404
 Alpha virt. eigenvalues --    1.15320   1.17101   1.18345   1.20283   1.20629
 Alpha virt. eigenvalues --    1.21604   1.22700   1.23933   1.24219   1.26554
 Alpha virt. eigenvalues --    1.27343   1.29758   1.30248   1.32274   1.34124
 Alpha virt. eigenvalues --    1.37311   1.40080   1.40258   1.41566   1.42729
 Alpha virt. eigenvalues --    1.43617   1.45024   1.46461   1.47273   1.49370
 Alpha virt. eigenvalues --    1.49822   1.50474   1.51640   1.51870   1.52333
 Alpha virt. eigenvalues --    1.53714   1.54192   1.55431   1.56136   1.56453
 Alpha virt. eigenvalues --    1.56789   1.58488   1.59726   1.60389   1.60517
 Alpha virt. eigenvalues --    1.62131   1.63285   1.64919   1.66029   1.67546
 Alpha virt. eigenvalues --    1.68613   1.69171   1.70469   1.71325   1.74153
 Alpha virt. eigenvalues --    1.76823   1.77077   1.79015   1.79379   1.81039
 Alpha virt. eigenvalues --    1.82958   1.85918   1.88147   1.89705   1.90607
 Alpha virt. eigenvalues --    1.91370   1.94486   1.95008   1.97396   2.00539
 Alpha virt. eigenvalues --    2.00827   2.05450   2.07037   2.08347   2.08475
 Alpha virt. eigenvalues --    2.10895   2.13935   2.18607   2.20231   2.24595
 Alpha virt. eigenvalues --    2.27648   2.30686   2.37026   2.37401   2.38002
 Alpha virt. eigenvalues --    2.38279   2.39369   2.39930   2.40470   2.42148
 Alpha virt. eigenvalues --    2.42559   2.43754   2.45055   2.51021   2.54995
 Alpha virt. eigenvalues --    2.61157   2.64125   2.68329   2.71899   2.73264
 Alpha virt. eigenvalues --    2.76309   2.78779   2.81839   2.94681   2.99731
 Alpha virt. eigenvalues --    3.01879   3.09943   3.11452   3.15940   3.17850
 Alpha virt. eigenvalues --    3.24294   3.27128   3.35295   3.59304   3.74890
          Condensed to atoms (all electrons):
 Mulliken charges:
               1
     1  C    0.621354
     2  C   -0.108920
     3  S    0.374281
     4  S    0.296382
     5  C    1.040664
     6  C    1.132114
     7  C    0.785810
     8  N   -1.083368
     9  S    0.557223
    10  C   -1.130512
    11  N   -0.167888
    12  C   -1.100948
    13  N   -0.180496
    14  C   -0.852755
    15  N   -0.182939
 Sum of Mulliken charges =  -0.00000
 Mulliken charges with hydrogens summed into heavy atoms:
               1
     1  C    0.621354
     2  C   -0.108920
     3  S    0.374281
     4  S    0.296382
     5  C    1.040664
     6  C    1.132114
     7  C    0.785810
     8  N   -1.083368
     9  S    0.557223
    10  C   -1.130512
    11  N   -0.167888
    12  C   -1.100948
    13  N   -0.180496
    14  C   -0.852755
    15  N   -0.182939
 Electronic spatial extent (au):  <R**2>=           4013.7180
 Charge=             -0.0000 electrons
 Dipole moment (field-independent basis, Debye):
    X=             -0.4843    Y=              2.7978    Z=             -3.7262  Tot=              4.6847

 Test job not archived.
 1\1\GINC-CHIMERA-NODE14\SP\RM05\Gen\C8N4S3\CONNORNM\19-Jan-2019\0\\#T 
 M05/Gen test Massage SCF=(fermi,maxcyc=60)\\M05 opt\\0,1\C,0,-0.422516
 92,0.91480257,-0.16038895\C,0,0.38215285,0.4586589,-1.24217736\S,0,-1.
 32605674,-0.11997744,0.935678\S,0,0.63108092,-1.24773867,-1.64321415\C
 ,0,-0.26305461,-1.5381661,0.98943178\C,0,0.51084284,-1.98361503,-0.035
 41066\C,0,-0.44282117,2.29491353,-0.14679861\N,0,0.94218966,1.36783284
 ,-2.00219153\S,0,0.50304677,2.8842819,-1.4745054\C,0,-0.31917153,-2.23
 259941,2.2326948\N,0,-0.41669139,-2.77795827,3.25458844\C,0,1.29629625
 ,-3.16662312,0.09686454\N,0,1.92874885,-4.14032934,0.1500252\C,0,-1.12
 512747,3.15534599,0.74722742\N,0,-1.68578638,3.8764159,1.46612636\\Ver
 sion=AS64L-G09RevD.01\HF=-1724.7614928\RMSD=5.149e-09\Dipole=-0.190532
 6,1.100723,-1.4659894\Quadrupole=5.895534,-6.6408292,0.7452952,9.33376
 18,3.3376778,0.9163994\PG=C01 [X(C8N4S3)]\\@


       THE DEATH-KNELL OF THE ATOM

 SO THE ATOMS IN TURN, WE NOW CLEARLY DISCERN,
 FLY TO BITS WITH THE UTMOST FACILITY;
 THEY WEND ON THEIR WAY, AND, IN SPLITTING, DISPLAY
 AN ABSOLUTE LACK OF STABILITY.

          SIR WM. RAMSAY, 1905
 Job cpu time:       0 days  1 hours 38 minutes 27.6 seconds.
 File lengths (MBytes):  RWF=     58 Int=      0 D2E=      0 Chk=      6 Scr=      1
 Normal termination of Gaussian 09 at Sat Jan 19 10:44:46 2019.
