 Entering Gaussian System, Link 0=/data/szalewicgrp/connornm/opt/Gaussian/g09-M05-par/g09/g09
 AtFile(1): blind-aug.gbs
 Initial command:
 /data/szalewicgrp/connornm/opt/Gaussian/g09-M05-par/g09/l1.exe "/scratch/local/Gau-1224.inp" -scrdir="/scratch/local/"
 Entering Link 1 = /data/szalewicgrp/connornm/opt/Gaussian/g09-M05-par/g09/l1.exe PID=      1225.
  
 Copyright (c) 1988,1990,1992,1993,1995,1998,2003,2009,2013,
            Gaussian, Inc.  All Rights Reserved.
  
 This is part of the Gaussian(R) 09 program.  It is based on
 the Gaussian(R) 03 system (copyright 2003, Gaussian, Inc.),
 the Gaussian(R) 98 system (copyright 1998, Gaussian, Inc.),
 the Gaussian(R) 94 system (copyright 1995, Gaussian, Inc.),
 the Gaussian 92(TM) system (copyright 1992, Gaussian, Inc.),
 the Gaussian 90(TM) system (copyright 1990, Gaussian, Inc.),
 the Gaussian 88(TM) system (copyright 1988, Gaussian, Inc.),
 the Gaussian 86(TM) system (copyright 1986, Carnegie Mellon
 University), and the Gaussian 82(TM) system (copyright 1983,
 Carnegie Mellon University). Gaussian is a federally registered
 trademark of Gaussian, Inc.
  
 This software contains proprietary and confidential information,
 including trade secrets, belonging to Gaussian, Inc.
  
 This software is provided under written license and may be
 used, copied, transmitted, or stored only in accord with that
 written license.
  
 The following legend is applicable only to US Government
 contracts under FAR:
  
                    RESTRICTED RIGHTS LEGEND
  
 Use, reproduction and disclosure by the US Government is
 subject to restrictions as set forth in subparagraphs (a)
 and (c) of the Commercial Computer Software - Restricted
 Rights clause in FAR 52.227-19.
  
 Gaussian, Inc.
 340 Quinnipiac St., Bldg. 40, Wallingford CT 06492
  
  
 ---------------------------------------------------------------
 Warning -- This program may not be used in any manner that
 competes with the business of Gaussian, Inc. or will provide
 assistance to any competitor of Gaussian, Inc.  The licensee
 of this program is prohibited from giving any competitor of
 Gaussian, Inc. access to this program.  By using this program,
 the user acknowledges that Gaussian, Inc. is engaged in the
 business of creating and licensing software in the field of
 computational chemistry and represents and warrants to the
 licensee that it is not a competitor of Gaussian, Inc. and that
 it will not use this program in any manner prohibited above.
 ---------------------------------------------------------------
  

 Cite this work as:
 Gaussian 09, Revision D.01,
 M. J. Frisch, G. W. Trucks, H. B. Schlegel, G. E. Scuseria, 
 M. A. Robb, J. R. Cheeseman, G. Scalmani, V. Barone, B. Mennucci, 
 G. A. Petersson, H. Nakatsuji, M. Caricato, X. Li, H. P. Hratchian, 
 A. F. Izmaylov, J. Bloino, G. Zheng, J. L. Sonnenberg, M. Hada, 
 M. Ehara, K. Toyota, R. Fukuda, J. Hasegawa, M. Ishida, T. Nakajima, 
 Y. Honda, O. Kitao, H. Nakai, T. Vreven, J. A. Montgomery, Jr., 
 J. E. Peralta, F. Ogliaro, M. Bearpark, J. J. Heyd, E. Brothers, 
 K. N. Kudin, V. N. Staroverov, T. Keith, R. Kobayashi, J. Normand, 
 K. Raghavachari, A. Rendell, J. C. Burant, S. S. Iyengar, J. Tomasi, 
 M. Cossi, N. Rega, J. M. Millam, M. Klene, J. E. Knox, J. B. Cross, 
 V. Bakken, C. Adamo, J. Jaramillo, R. Gomperts, R. E. Stratmann, 
 O. Yazyev, A. J. Austin, R. Cammi, C. Pomelli, J. W. Ochterski, 
 R. L. Martin, K. Morokuma, V. G. Zakrzewski, G. A. Voth, 
 P. Salvador, J. J. Dannenberg, S. Dapprich, A. D. Daniels, 
 O. Farkas, J. B. Foresman, J. V. Ortiz, J. Cioslowski, 
 and D. J. Fox, Gaussian, Inc., Wallingford CT, 2013.
 
 ******************************************
 Gaussian 09:  AS64L-G09RevD.01 24-Apr-2013
                19-Jan-2019 
 ******************************************
 %Chk=BLIND00485_mB
 %Mem=1GB
 %NProcShared=48
 Will use up to   48 processors via shared memory.
 ---------------------------------------------
 #T M05/Gen test Massage SCF=(fermi,maxcyc=60)
 ---------------------------------------------
 -------
 M05 opt
 -------
 Symbolic Z-matrix:
 Charge =  0 Multiplicity = 1
 6                    -0.13709  -1.01058   6.54137 
 6                    -1.31572  -0.28358   6.21251 
 16                    1.50197  -0.51261   6.14891 
 16                   -1.31845   1.27495   5.37253 
 6                     1.33584   1.2499    6.24931 
 6                     0.21642   1.95596   5.93945 
 6                    -0.48061  -2.20005   7.15167 
 7                    -2.46646  -0.82689   6.52631 
 16                   -2.20853  -2.3118    7.23303 
 6                     2.53566   1.90266   6.65605 
 7                     3.54335   2.39104   6.96786 
 6                     0.20278   3.38034   6.00948 
 7                     0.15513   4.54156   6.02411 
 6                     0.37494  -3.2231    7.62765 
 7                     1.06177  -4.07688   8.0155 
 
                    Distance matrix (angstroms):
                    1          2          3          4          5
     1  C    0.000000
     2  C    1.423315   0.000000
     3  S    1.757418   2.827694   0.000000
     4  S    2.825849   1.770477   3.428253   0.000000
     5  C    2.713774   3.063280   1.773167   2.795470   0.000000
     6  C    3.047557   2.727187   2.791121   1.772288   1.359281
     7  C    1.380327   2.291783   2.789903   3.992857   4.001979
     8  N    2.336642   1.310672   3.998700   2.658358   4.341342
     9  S    2.542129   2.439721   4.263822   4.137445   5.120151
    10  C    3.955208   4.450782   2.675676   4.110426   1.425163
    11  N    5.029770   5.597745   3.642685   5.237162   2.586817
    12  C    4.436049   3.971317   4.106384   2.674416   2.424897
    13  N    5.583831   5.047859   5.232040   3.642352   3.504263
    14  C    2.517432   3.674472   3.286888   5.309014   4.778168
    15  N    3.607292   4.826214   4.047461   6.425950   5.618639
                    6          7          8          9         10
     6  C    0.000000
     7  C    4.384939   0.000000
     8  N    3.909794   2.494036   0.000000
     9  S    5.076167   1.733444   1.664607   0.000000
    10  C    2.428007   5.116215   5.699860   6.371958   0.000000
    11  N    3.509330   6.107712   6.831389   7.434461   1.162408
    12  C    1.426163   5.736923   5.009263   6.301738   2.836178
    13  N    2.587713   6.864751   5.995430   7.349618   3.609722
    14  C    5.449573   1.416040   3.876636   2.767765   5.646781
    15  N    6.435818   2.578302   5.022796   3.797715   6.306769
                   11         12         13         14         15
    11  N    0.000000
    12  C    3.613393   0.000000
    13  N    4.122555   1.162293   0.000000
    14  C    6.480188   6.800997   7.931563   0.000000
    15  N    7.006418   7.769948   8.891861   1.162367   0.000000
 Symmetry turned off by external request.
 Framework group  C1[X(C8N4S3)]
 Deg. of freedom    39
 Rotational constants (GHZ):      0.7722167      0.3388923      0.2463240
   357 basis functions,   759 primitive gaussians,   387 cartesian basis functions
    62 alpha electrons       62 beta electrons
       nuclear repulsion energy      1166.1400396428 Hartrees.
 IMHF & INEx in M05                  599485                  400514
 NAtoms=   15 NActive=   15 NUniq=   15 SFac= 1.00D+00 NAtFMM=   60 NAOKFM=F Big=F
 PrsmSu:  requested number of processors reduced to:  34 ShMem   1 Linda.
 ExpMin= 3.99D-02 ExpMax= 1.11D+05 ExpMxC= 1.07D+03 IAcc=3 IRadAn=         5 AccDes= 0.00D+00
 Harris functional with IExCor= 1009 and IRadAn=       5 diagonalized for initial guess.
 HarFok:  IExCor= 1009 AccDes= 0.00D+00 IRadAn=         5 IDoV= 1 UseB2=F ITyADJ=14
 ICtDFT=  3500011 ScaDFX=  1.000000  1.000000  1.000000  1.000000
 FoFCou: FMM=F IPFlag=           0 FMFlag=      100000 FMFlg1=           0
         NFxFlg=           0 DoJE=T BraDBF=F KetDBF=T FulRan=T
         wScrn=  0.000000 ICntrl=     500 IOpCl=  0 I1Cent=   200000004 NGrid=           0
         NMat0=    1 NMatS0=      1 NMatT0=    0 NMatD0=    1 NMtDS0=    0 NMtDT0=    0
 Symmetry not used in FoFCou.
 SCF Done:  E(RM05) =  -1724.76149802     A.U. after   17 cycles
            NFock= 17  Conv=0.52D-08     -V/T= 2.0061

 **********************************************************************

            Population analysis using the SCF density.

 **********************************************************************

 Alpha  occ. eigenvalues --  -90.56431 -90.53636 -90.53182 -15.08622 -15.05416
 Alpha  occ. eigenvalues --  -15.04969 -15.04933 -10.89945 -10.89826 -10.89736
 Alpha  occ. eigenvalues --  -10.88752 -10.87414 -10.84946 -10.84332 -10.84310
 Alpha  occ. eigenvalues --   -8.57526  -8.55036  -8.54609  -6.40064  -6.39713
 Alpha  occ. eigenvalues --   -6.39401  -6.37597  -6.37283  -6.37163  -6.36853
 Alpha  occ. eigenvalues --   -6.36822  -6.36392  -1.20533  -1.12895  -1.12139
 Alpha  occ. eigenvalues --   -1.11337  -1.07643  -1.03801  -0.98824  -0.97396
 Alpha  occ. eigenvalues --   -0.88002  -0.84555  -0.82236  -0.73687  -0.71296
 Alpha  occ. eigenvalues --   -0.67838  -0.64612  -0.59530  -0.57258  -0.55386
 Alpha  occ. eigenvalues --   -0.53385  -0.52648  -0.52243  -0.51890  -0.50883
 Alpha  occ. eigenvalues --   -0.50387  -0.49356  -0.48215  -0.46805  -0.46074
 Alpha  occ. eigenvalues --   -0.45933  -0.45296  -0.43720  -0.43113  -0.39488
 Alpha  occ. eigenvalues --   -0.37627  -0.33120
 Alpha virt. eigenvalues --   -0.09329  -0.08268  -0.02097  -0.01262  -0.00503
 Alpha virt. eigenvalues --   -0.00362   0.00154   0.01256   0.02022   0.02229
 Alpha virt. eigenvalues --    0.02394   0.02958   0.03192   0.04002   0.04275
 Alpha virt. eigenvalues --    0.04486   0.05429   0.06007   0.06299   0.07067
 Alpha virt. eigenvalues --    0.07273   0.07526   0.07708   0.08288   0.08492
 Alpha virt. eigenvalues --    0.09373   0.10092   0.10389   0.10527   0.10812
 Alpha virt. eigenvalues --    0.11288   0.11393   0.11978   0.12529   0.13227
 Alpha virt. eigenvalues --    0.13490   0.13935   0.14455   0.15077   0.15191
 Alpha virt. eigenvalues --    0.15904   0.16276   0.16675   0.16812   0.17191
 Alpha virt. eigenvalues --    0.17362   0.17842   0.18615   0.19048   0.19566
 Alpha virt. eigenvalues --    0.19868   0.20246   0.20682   0.20937   0.21269
 Alpha virt. eigenvalues --    0.21880   0.22208   0.22583   0.22823   0.23611
 Alpha virt. eigenvalues --    0.23751   0.24112   0.24371   0.24705   0.25259
 Alpha virt. eigenvalues --    0.25697   0.25854   0.26225   0.26623   0.26746
 Alpha virt. eigenvalues --    0.27074   0.28336   0.29193   0.29664   0.30370
 Alpha virt. eigenvalues --    0.30710   0.32419   0.33456   0.34153   0.34716
 Alpha virt. eigenvalues --    0.34950   0.35471   0.36120   0.36933   0.37592
 Alpha virt. eigenvalues --    0.38151   0.39575   0.40727   0.41170   0.42049
 Alpha virt. eigenvalues --    0.42123   0.43485   0.44138   0.45734   0.45976
 Alpha virt. eigenvalues --    0.46962   0.48554   0.49571   0.50238   0.50602
 Alpha virt. eigenvalues --    0.51523   0.51855   0.53527   0.54164   0.54429
 Alpha virt. eigenvalues --    0.54701   0.55464   0.55731   0.55835   0.56448
 Alpha virt. eigenvalues --    0.57775   0.58139   0.58554   0.59211   0.60309
 Alpha virt. eigenvalues --    0.60550   0.61101   0.61586   0.62104   0.62708
 Alpha virt. eigenvalues --    0.63715   0.64718   0.64954   0.66005   0.66556
 Alpha virt. eigenvalues --    0.67690   0.68188   0.68806   0.70106   0.70410
 Alpha virt. eigenvalues --    0.71046   0.72861   0.73466   0.73856   0.75374
 Alpha virt. eigenvalues --    0.75566   0.76454   0.77061   0.77552   0.77841
 Alpha virt. eigenvalues --    0.78242   0.79256   0.79759   0.79876   0.81109
 Alpha virt. eigenvalues --    0.81534   0.82547   0.83283   0.83955   0.84873
 Alpha virt. eigenvalues --    0.85698   0.85938   0.87125   0.87249   0.88404
 Alpha virt. eigenvalues --    0.88459   0.89343   0.89665   0.89830   0.90730
 Alpha virt. eigenvalues --    0.91170   0.91726   0.92828   0.93722   0.94366
 Alpha virt. eigenvalues --    0.95430   0.95567   0.97324   0.98744   0.99313
 Alpha virt. eigenvalues --    0.99844   1.01204   1.02848   1.03575   1.04752
 Alpha virt. eigenvalues --    1.05759   1.06747   1.08041   1.08543   1.09634
 Alpha virt. eigenvalues --    1.10235   1.11403   1.13198   1.13608   1.14403
 Alpha virt. eigenvalues --    1.15321   1.17099   1.18343   1.20284   1.20634
 Alpha virt. eigenvalues --    1.21607   1.22704   1.23936   1.24221   1.26559
 Alpha virt. eigenvalues --    1.27345   1.29757   1.30251   1.32272   1.34126
 Alpha virt. eigenvalues --    1.37313   1.40083   1.40260   1.41568   1.42730
 Alpha virt. eigenvalues --    1.43621   1.45025   1.46464   1.47273   1.49370
 Alpha virt. eigenvalues --    1.49823   1.50475   1.51642   1.51870   1.52334
 Alpha virt. eigenvalues --    1.53716   1.54193   1.55431   1.56137   1.56449
 Alpha virt. eigenvalues --    1.56791   1.58485   1.59725   1.60391   1.60516
 Alpha virt. eigenvalues --    1.62133   1.63285   1.64920   1.66029   1.67548
 Alpha virt. eigenvalues --    1.68614   1.69176   1.70470   1.71325   1.74150
 Alpha virt. eigenvalues --    1.76827   1.77076   1.79017   1.79377   1.81040
 Alpha virt. eigenvalues --    1.82960   1.85920   1.88149   1.89703   1.90607
 Alpha virt. eigenvalues --    1.91370   1.94485   1.95007   1.97394   2.00539
 Alpha virt. eigenvalues --    2.00824   2.05448   2.07036   2.08347   2.08475
 Alpha virt. eigenvalues --    2.10896   2.13937   2.18606   2.20232   2.24596
 Alpha virt. eigenvalues --    2.27645   2.30685   2.37025   2.37401   2.38002
 Alpha virt. eigenvalues --    2.38279   2.39369   2.39930   2.40471   2.42150
 Alpha virt. eigenvalues --    2.42559   2.43754   2.45056   2.51016   2.54996
 Alpha virt. eigenvalues --    2.61158   2.64126   2.68330   2.71900   2.73263
 Alpha virt. eigenvalues --    2.76309   2.78780   2.81841   2.94681   2.99730
 Alpha virt. eigenvalues --    3.01876   3.09943   3.11452   3.15941   3.17851
 Alpha virt. eigenvalues --    3.24292   3.27130   3.35296   3.59308   3.74897
          Condensed to atoms (all electrons):
 Mulliken charges:
               1
     1  C    0.619406
     2  C   -0.109523
     3  S    0.374459
     4  S    0.297370
     5  C    1.040427
     6  C    1.130594
     7  C    0.787232
     8  N   -1.083255
     9  S    0.557299
    10  C   -1.130087
    11  N   -0.167931
    12  C   -1.099740
    13  N   -0.180449
    14  C   -0.852864
    15  N   -0.182936
 Sum of Mulliken charges =  -0.00000
 Mulliken charges with hydrogens summed into heavy atoms:
               1
     1  C    0.619406
     2  C   -0.109523
     3  S    0.374459
     4  S    0.297370
     5  C    1.040427
     6  C    1.130594
     7  C    0.787232
     8  N   -1.083255
     9  S    0.557299
    10  C   -1.130087
    11  N   -0.167931
    12  C   -1.099740
    13  N   -0.180449
    14  C   -0.852864
    15  N   -0.182936
 Electronic spatial extent (au):  <R**2>=          22788.0270
 Charge=             -0.0000 electrons
 Dipole moment (field-independent basis, Debye):
    X=             -3.4272    Y=             -2.9050    Z=             -1.3295  Tot=              4.6853

 Test job not archived.
 1\1\GINC-CHIMERA-NODE61\SP\RM05\Gen\C8N4S3\CONNORNM\19-Jan-2019\0\\#T 
 M05/Gen test Massage SCF=(fermi,maxcyc=60)\\M05 opt\\0,1\C,0,-0.137093
 29,-1.01057574,6.54137368\C,0,-1.31571745,-0.28358335,6.21250622\S,0,1
 .50196856,-0.51261425,6.14891061\S,0,-1.31845179,1.27494875,5.37253088
 \C,0,1.33584202,1.24989626,6.24931349\C,0,0.2164197,1.95595809,5.93945
 155\C,0,-0.48060698,-2.20004554,7.15167128\N,0,-2.46645609,-0.82689296
 ,6.52631392\S,0,-2.20853025,-2.31179945,7.23302734\C,0,2.53565641,1.90
 26573,6.65605434\N,0,3.54335221,2.39104466,6.96785555\C,0,0.20278033,3
 .38033597,6.00947696\N,0,0.15512529,4.54155992,6.02410759\C,0,0.374939
 83,-3.22310452,7.62765282\N,0,1.06176852,-4.07688203,8.015501\\Version
 =AS64L-G09RevD.01\HF=-1724.761498\RMSD=5.162e-09\Dipole=-1.3483607,-1.
 1429011,-0.5230513\Quadrupole=5.496976,-7.0741435,1.5771675,0.5804623,
 -20.6858135,-11.8691293\PG=C01 [X(C8N4S3)]\\@


 Once you get people laughing, they're
 listening and you can tell them almost anything.
                                 -- Herb Gardner
 Job cpu time:       0 days  1 hours 55 minutes 49.5 seconds.
 File lengths (MBytes):  RWF=     58 Int=      0 D2E=      0 Chk=      6 Scr=      1
 Normal termination of Gaussian 09 at Sat Jan 19 10:57:31 2019.
