 Entering Gaussian System, Link 0=/data/szalewicgrp/connornm/opt/Gaussian/g09-M05-par/g09/g09
 AtFile(1): blind-aug.gbs
 Initial command:
 /data/szalewicgrp/connornm/opt/Gaussian/g09-M05-par/g09/l1.exe "/scratch/local/Gau-29945.inp" -scrdir="/scratch/local/"
 Entering Link 1 = /data/szalewicgrp/connornm/opt/Gaussian/g09-M05-par/g09/l1.exe PID=     29946.
  
 Copyright (c) 1988,1990,1992,1993,1995,1998,2003,2009,2013,
            Gaussian, Inc.  All Rights Reserved.
  
 This is part of the Gaussian(R) 09 program.  It is based on
 the Gaussian(R) 03 system (copyright 2003, Gaussian, Inc.),
 the Gaussian(R) 98 system (copyright 1998, Gaussian, Inc.),
 the Gaussian(R) 94 system (copyright 1995, Gaussian, Inc.),
 the Gaussian 92(TM) system (copyright 1992, Gaussian, Inc.),
 the Gaussian 90(TM) system (copyright 1990, Gaussian, Inc.),
 the Gaussian 88(TM) system (copyright 1988, Gaussian, Inc.),
 the Gaussian 86(TM) system (copyright 1986, Carnegie Mellon
 University), and the Gaussian 82(TM) system (copyright 1983,
 Carnegie Mellon University). Gaussian is a federally registered
 trademark of Gaussian, Inc.
  
 This software contains proprietary and confidential information,
 including trade secrets, belonging to Gaussian, Inc.
  
 This software is provided under written license and may be
 used, copied, transmitted, or stored only in accord with that
 written license.
  
 The following legend is applicable only to US Government
 contracts under FAR:
  
                    RESTRICTED RIGHTS LEGEND
  
 Use, reproduction and disclosure by the US Government is
 subject to restrictions as set forth in subparagraphs (a)
 and (c) of the Commercial Computer Software - Restricted
 Rights clause in FAR 52.227-19.
  
 Gaussian, Inc.
 340 Quinnipiac St., Bldg. 40, Wallingford CT 06492
  
  
 ---------------------------------------------------------------
 Warning -- This program may not be used in any manner that
 competes with the business of Gaussian, Inc. or will provide
 assistance to any competitor of Gaussian, Inc.  The licensee
 of this program is prohibited from giving any competitor of
 Gaussian, Inc. access to this program.  By using this program,
 the user acknowledges that Gaussian, Inc. is engaged in the
 business of creating and licensing software in the field of
 computational chemistry and represents and warrants to the
 licensee that it is not a competitor of Gaussian, Inc. and that
 it will not use this program in any manner prohibited above.
 ---------------------------------------------------------------
  

 Cite this work as:
 Gaussian 09, Revision D.01,
 M. J. Frisch, G. W. Trucks, H. B. Schlegel, G. E. Scuseria, 
 M. A. Robb, J. R. Cheeseman, G. Scalmani, V. Barone, B. Mennucci, 
 G. A. Petersson, H. Nakatsuji, M. Caricato, X. Li, H. P. Hratchian, 
 A. F. Izmaylov, J. Bloino, G. Zheng, J. L. Sonnenberg, M. Hada, 
 M. Ehara, K. Toyota, R. Fukuda, J. Hasegawa, M. Ishida, T. Nakajima, 
 Y. Honda, O. Kitao, H. Nakai, T. Vreven, J. A. Montgomery, Jr., 
 J. E. Peralta, F. Ogliaro, M. Bearpark, J. J. Heyd, E. Brothers, 
 K. N. Kudin, V. N. Staroverov, T. Keith, R. Kobayashi, J. Normand, 
 K. Raghavachari, A. Rendell, J. C. Burant, S. S. Iyengar, J. Tomasi, 
 M. Cossi, N. Rega, J. M. Millam, M. Klene, J. E. Knox, J. B. Cross, 
 V. Bakken, C. Adamo, J. Jaramillo, R. Gomperts, R. E. Stratmann, 
 O. Yazyev, A. J. Austin, R. Cammi, C. Pomelli, J. W. Ochterski, 
 R. L. Martin, K. Morokuma, V. G. Zakrzewski, G. A. Voth, 
 P. Salvador, J. J. Dannenberg, S. Dapprich, A. D. Daniels, 
 O. Farkas, J. B. Foresman, J. V. Ortiz, J. Cioslowski, 
 and D. J. Fox, Gaussian, Inc., Wallingford CT, 2013.
 
 ******************************************
 Gaussian 09:  AS64L-G09RevD.01 24-Apr-2013
                19-Jan-2019 
 ******************************************
 %Chk=BLIND00594_mA
 %Mem=1GB
 %NProcShared=48
 Will use up to   48 processors via shared memory.
 ---------------------------------------------
 #T M05/Gen test Massage SCF=(fermi,maxcyc=60)
 ---------------------------------------------
 -------
 M05 opt
 -------
 Symbolic Z-matrix:
 Charge =  0 Multiplicity = 1
 6                    -0.81386  -0.61294  -0.05517 
 6                     0.24792  -1.14122   0.73182 
 16                   -1.17741   1.09556  -0.24853 
 16                    1.40765  -0.14839   1.62842 
 6                     0.45337   1.78487  -0.15104 
 6                     1.476     1.28998   0.59526 
 6                    -1.55777  -1.64768  -0.58547 
 7                     0.34348  -2.44558   0.81768 
 16                   -0.89338  -3.15379  -0.0423 
 6                     0.60307   2.97803  -0.91592 
 7                     0.66957   3.95958  -1.53507 
 6                     2.73946   1.94994   0.6406 
 7                     3.77512   2.46984   0.73026 
 6                    -2.70377  -1.57203  -1.41379 
 7                    -3.65071  -1.52868  -2.0865 
 
                    Distance matrix (angstroms):
                    1          2          3          4          5
     1  C    0.000000
     2  C    1.423315   0.000000
     3  S    1.757418   2.827694   0.000000
     4  S    2.825849   1.770477   3.428253   0.000000
     5  C    2.713774   3.063280   1.773167   2.795470   0.000000
     6  C    3.047557   2.727187   2.791121   1.772288   1.359281
     7  C    1.380327   2.291783   2.789903   3.992857   4.001979
     8  N    2.336642   1.310672   3.998700   2.658358   4.341342
     9  S    2.542129   2.439721   4.263822   4.137445   5.120151
    10  C    3.955208   4.450782   2.675676   4.110426   1.425163
    11  N    5.029770   5.597745   3.642685   5.237162   2.586817
    12  C    4.436049   3.971317   4.106384   2.674416   2.424897
    13  N    5.583831   5.047859   5.232040   3.642352   3.504263
    14  C    2.517432   3.674472   3.286888   5.309014   4.778168
    15  N    3.607292   4.826214   4.047461   6.425950   5.618639
                    6          7          8          9         10
     6  C    0.000000
     7  C    4.384939   0.000000
     8  N    3.909794   2.494036   0.000000
     9  S    5.076167   1.733444   1.664607   0.000000
    10  C    2.428007   5.116215   5.699860   6.371958   0.000000
    11  N    3.509330   6.107712   6.831389   7.434461   1.162408
    12  C    1.426163   5.736923   5.009263   6.301738   2.836178
    13  N    2.587713   6.864751   5.995430   7.349618   3.609722
    14  C    5.449573   1.416040   3.876636   2.767765   5.646781
    15  N    6.435818   2.578302   5.022796   3.797715   6.306769
                   11         12         13         14         15
    11  N    0.000000
    12  C    3.613393   0.000000
    13  N    4.122555   1.162293   0.000000
    14  C    6.480188   6.800997   7.931563   0.000000
    15  N    7.006418   7.769948   8.891861   1.162367   0.000000
 Symmetry turned off by external request.
 Framework group  C1[X(C8N4S3)]
 Deg. of freedom    39
 Rotational constants (GHZ):      0.7722167      0.3388923      0.2463240
   357 basis functions,   759 primitive gaussians,   387 cartesian basis functions
    62 alpha electrons       62 beta electrons
       nuclear repulsion energy      1166.1400390196 Hartrees.
 IMHF & INEx in M05                  599485                  400514
 NAtoms=   15 NActive=   15 NUniq=   15 SFac= 1.00D+00 NAtFMM=   60 NAOKFM=F Big=F
 PrsmSu:  requested number of processors reduced to:  34 ShMem   1 Linda.
 ExpMin= 3.99D-02 ExpMax= 1.11D+05 ExpMxC= 1.07D+03 IAcc=3 IRadAn=         5 AccDes= 0.00D+00
 Harris functional with IExCor= 1009 and IRadAn=       5 diagonalized for initial guess.
 HarFok:  IExCor= 1009 AccDes= 0.00D+00 IRadAn=         5 IDoV= 1 UseB2=F ITyADJ=14
 ICtDFT=  3500011 ScaDFX=  1.000000  1.000000  1.000000  1.000000
 FoFCou: FMM=F IPFlag=           0 FMFlag=      100000 FMFlg1=           0
         NFxFlg=           0 DoJE=T BraDBF=F KetDBF=T FulRan=T
         wScrn=  0.000000 ICntrl=     500 IOpCl=  0 I1Cent=   200000004 NGrid=           0
         NMat0=    1 NMatS0=      1 NMatT0=    0 NMatD0=    1 NMtDS0=    0 NMtDT0=    0
 Symmetry not used in FoFCou.
 SCF Done:  E(RM05) =  -1724.76147115     A.U. after   17 cycles
            NFock= 17  Conv=0.51D-08     -V/T= 2.0061

 **********************************************************************

            Population analysis using the SCF density.

 **********************************************************************

 Alpha  occ. eigenvalues --  -90.56430 -90.53635 -90.53181 -15.08622 -15.05417
 Alpha  occ. eigenvalues --  -15.04969 -15.04934 -10.89945 -10.89827 -10.89736
 Alpha  occ. eigenvalues --  -10.88752 -10.87413 -10.84947 -10.84331 -10.84311
 Alpha  occ. eigenvalues --   -8.57526  -8.55035  -8.54608  -6.40063  -6.39713
 Alpha  occ. eigenvalues --   -6.39401  -6.37596  -6.37282  -6.37162  -6.36852
 Alpha  occ. eigenvalues --   -6.36821  -6.36392  -1.20533  -1.12895  -1.12139
 Alpha  occ. eigenvalues --   -1.11337  -1.07643  -1.03801  -0.98824  -0.97396
 Alpha  occ. eigenvalues --   -0.88002  -0.84555  -0.82236  -0.73687  -0.71296
 Alpha  occ. eigenvalues --   -0.67838  -0.64612  -0.59530  -0.57258  -0.55386
 Alpha  occ. eigenvalues --   -0.53385  -0.52648  -0.52243  -0.51890  -0.50883
 Alpha  occ. eigenvalues --   -0.50387  -0.49356  -0.48215  -0.46805  -0.46075
 Alpha  occ. eigenvalues --   -0.45933  -0.45296  -0.43720  -0.43113  -0.39488
 Alpha  occ. eigenvalues --   -0.37627  -0.33119
 Alpha virt. eigenvalues --   -0.09329  -0.08268  -0.02098  -0.01263  -0.00503
 Alpha virt. eigenvalues --   -0.00362   0.00153   0.01254   0.02019   0.02229
 Alpha virt. eigenvalues --    0.02394   0.02957   0.03189   0.04001   0.04277
 Alpha virt. eigenvalues --    0.04487   0.05427   0.06007   0.06297   0.07067
 Alpha virt. eigenvalues --    0.07271   0.07525   0.07707   0.08288   0.08491
 Alpha virt. eigenvalues --    0.09374   0.10094   0.10392   0.10522   0.10810
 Alpha virt. eigenvalues --    0.11288   0.11390   0.11976   0.12527   0.13227
 Alpha virt. eigenvalues --    0.13493   0.13935   0.14456   0.15075   0.15192
 Alpha virt. eigenvalues --    0.15903   0.16279   0.16680   0.16813   0.17187
 Alpha virt. eigenvalues --    0.17358   0.17841   0.18608   0.19046   0.19559
 Alpha virt. eigenvalues --    0.19862   0.20243   0.20681   0.20938   0.21266
 Alpha virt. eigenvalues --    0.21880   0.22209   0.22580   0.22818   0.23615
 Alpha virt. eigenvalues --    0.23750   0.24109   0.24371   0.24700   0.25258
 Alpha virt. eigenvalues --    0.25698   0.25851   0.26230   0.26624   0.26748
 Alpha virt. eigenvalues --    0.27071   0.28334   0.29196   0.29661   0.30369
 Alpha virt. eigenvalues --    0.30709   0.32419   0.33459   0.34154   0.34715
 Alpha virt. eigenvalues --    0.34946   0.35470   0.36120   0.36936   0.37593
 Alpha virt. eigenvalues --    0.38153   0.39577   0.40730   0.41169   0.42052
 Alpha virt. eigenvalues --    0.42120   0.43484   0.44139   0.45738   0.45979
 Alpha virt. eigenvalues --    0.46967   0.48555   0.49573   0.50235   0.50603
 Alpha virt. eigenvalues --    0.51523   0.51856   0.53531   0.54168   0.54422
 Alpha virt. eigenvalues --    0.54704   0.55469   0.55736   0.55839   0.56452
 Alpha virt. eigenvalues --    0.57775   0.58140   0.58557   0.59217   0.60310
 Alpha virt. eigenvalues --    0.60552   0.61102   0.61584   0.62104   0.62710
 Alpha virt. eigenvalues --    0.63718   0.64718   0.64958   0.66006   0.66556
 Alpha virt. eigenvalues --    0.67688   0.68191   0.68806   0.70108   0.70413
 Alpha virt. eigenvalues --    0.71048   0.72863   0.73469   0.73855   0.75372
 Alpha virt. eigenvalues --    0.75565   0.76454   0.77062   0.77552   0.77839
 Alpha virt. eigenvalues --    0.78243   0.79254   0.79758   0.79878   0.81107
 Alpha virt. eigenvalues --    0.81534   0.82547   0.83275   0.83958   0.84870
 Alpha virt. eigenvalues --    0.85698   0.85938   0.87123   0.87252   0.88402
 Alpha virt. eigenvalues --    0.88459   0.89345   0.89668   0.89832   0.90731
 Alpha virt. eigenvalues --    0.91171   0.91723   0.92831   0.93722   0.94368
 Alpha virt. eigenvalues --    0.95431   0.95565   0.97325   0.98745   0.99312
 Alpha virt. eigenvalues --    0.99845   1.01206   1.02847   1.03574   1.04748
 Alpha virt. eigenvalues --    1.05757   1.06743   1.08037   1.08543   1.09635
 Alpha virt. eigenvalues --    1.10234   1.11401   1.13195   1.13606   1.14403
 Alpha virt. eigenvalues --    1.15323   1.17097   1.18345   1.20285   1.20632
 Alpha virt. eigenvalues --    1.21608   1.22700   1.23933   1.24220   1.26560
 Alpha virt. eigenvalues --    1.27344   1.29756   1.30249   1.32273   1.34126
 Alpha virt. eigenvalues --    1.37313   1.40082   1.40256   1.41566   1.42731
 Alpha virt. eigenvalues --    1.43617   1.45024   1.46464   1.47274   1.49371
 Alpha virt. eigenvalues --    1.49824   1.50475   1.51644   1.51868   1.52337
 Alpha virt. eigenvalues --    1.53718   1.54193   1.55434   1.56136   1.56452
 Alpha virt. eigenvalues --    1.56790   1.58485   1.59726   1.60392   1.60519
 Alpha virt. eigenvalues --    1.62131   1.63286   1.64921   1.66029   1.67545
 Alpha virt. eigenvalues --    1.68614   1.69174   1.70471   1.71323   1.74154
 Alpha virt. eigenvalues --    1.76827   1.77076   1.79017   1.79378   1.81041
 Alpha virt. eigenvalues --    1.82958   1.85919   1.88152   1.89702   1.90608
 Alpha virt. eigenvalues --    1.91369   1.94486   1.95007   1.97392   2.00539
 Alpha virt. eigenvalues --    2.00826   2.05448   2.07038   2.08349   2.08473
 Alpha virt. eigenvalues --    2.10893   2.13937   2.18606   2.20233   2.24595
 Alpha virt. eigenvalues --    2.27647   2.30686   2.37025   2.37401   2.38001
 Alpha virt. eigenvalues --    2.38279   2.39369   2.39930   2.40470   2.42151
 Alpha virt. eigenvalues --    2.42559   2.43755   2.45056   2.51017   2.54996
 Alpha virt. eigenvalues --    2.61157   2.64126   2.68329   2.71900   2.73263
 Alpha virt. eigenvalues --    2.76308   2.78779   2.81840   2.94680   2.99732
 Alpha virt. eigenvalues --    3.01876   3.09943   3.11452   3.15941   3.17850
 Alpha virt. eigenvalues --    3.24294   3.27129   3.35294   3.59308   3.74890
          Condensed to atoms (all electrons):
 Mulliken charges:
               1
     1  C    0.620300
     2  C   -0.108389
     3  S    0.374113
     4  S    0.296898
     5  C    1.040361
     6  C    1.131836
     7  C    0.787152
     8  N   -1.083396
     9  S    0.557143
    10  C   -1.130787
    11  N   -0.167964
    12  C   -1.100577
    13  N   -0.180428
    14  C   -0.853167
    15  N   -0.183095
 Sum of Mulliken charges =  -0.00000
 Mulliken charges with hydrogens summed into heavy atoms:
               1
     1  C    0.620300
     2  C   -0.108389
     3  S    0.374113
     4  S    0.296898
     5  C    1.040361
     6  C    1.131836
     7  C    0.787152
     8  N   -1.083396
     9  S    0.557143
    10  C   -1.130787
    11  N   -0.167964
    12  C   -1.100577
    13  N   -0.180428
    14  C   -0.853167
    15  N   -0.183095
 Electronic spatial extent (au):  <R**2>=           4013.7185
 Charge=             -0.0000 electrons
 Dipole moment (field-independent basis, Debye):
    X=             -1.3743    Y=             -3.8651    Z=              2.2628  Tot=              4.6849

 Test job not archived.
 1\1\GINC-CHIMERA-NODE47\SP\RM05\Gen\C8N4S3\CONNORNM\19-Jan-2019\0\\#T 
 M05/Gen test Massage SCF=(fermi,maxcyc=60)\\M05 opt\\0,1\C,0,-0.813861
 98,-0.61293841,-0.0551733\C,0,0.24792333,-1.14122384,0.73181662\S,0,-1
 .17741216,1.09555842,-0.2485292\S,0,1.40765037,-0.14839203,1.62842497\
 C,0,0.45337477,1.78487132,-0.15104178\C,0,1.47599628,1.28997722,0.5952
 6186\C,0,-1.55776809,-1.64768023,-0.58547161\N,0,0.34347771,-2.4455846
 6,0.81767822\S,0,-0.89337501,-3.1537908,-0.04229639\C,0,0.60306837,2.9
 7803481,-0.9159224\N,0,0.66957363,3.95957959,-1.53506692\C,0,2.7394574
 7,1.9499408,0.64060313\N,0,3.77511812,2.46983895,0.73026398\C,0,-2.703
 77261,-1.57202674,-1.41379438\N,0,-3.65070921,-1.52867843,-2.08649635\
 \Version=AS64L-G09RevD.01\HF=-1724.7614712\RMSD=5.130e-09\Dipole=-0.54
 06723,-1.520655,0.8902694\Quadrupole=-6.5252919,0.7622854,5.7630066,-7
 .2164703,-6.001674,3.5385234\PG=C01 [X(C8N4S3)]\\@


 JUST WHEN YOU THINK YOU'VE GOT THE WORLD ON A STRING,
 YOU FIND OUT IT'S YOUR LEASH.
 Job cpu time:       0 days  1 hours 57 minutes  6.4 seconds.
 File lengths (MBytes):  RWF=     58 Int=      0 D2E=      0 Chk=      6 Scr=      1
 Normal termination of Gaussian 09 at Sat Jan 19 10:46:05 2019.
