 Entering Gaussian System, Link 0=/data/szalewicgrp/connornm/opt/Gaussian/g09-M05-par/g09/g09
 AtFile(1): blind-aug.gbs
 Initial command:
 /data/szalewicgrp/connornm/opt/Gaussian/g09-M05-par/g09/l1.exe "/scratch/local/Gau-23942.inp" -scrdir="/scratch/local/"
 Entering Link 1 = /data/szalewicgrp/connornm/opt/Gaussian/g09-M05-par/g09/l1.exe PID=     23943.
  
 Copyright (c) 1988,1990,1992,1993,1995,1998,2003,2009,2013,
            Gaussian, Inc.  All Rights Reserved.
  
 This is part of the Gaussian(R) 09 program.  It is based on
 the Gaussian(R) 03 system (copyright 2003, Gaussian, Inc.),
 the Gaussian(R) 98 system (copyright 1998, Gaussian, Inc.),
 the Gaussian(R) 94 system (copyright 1995, Gaussian, Inc.),
 the Gaussian 92(TM) system (copyright 1992, Gaussian, Inc.),
 the Gaussian 90(TM) system (copyright 1990, Gaussian, Inc.),
 the Gaussian 88(TM) system (copyright 1988, Gaussian, Inc.),
 the Gaussian 86(TM) system (copyright 1986, Carnegie Mellon
 University), and the Gaussian 82(TM) system (copyright 1983,
 Carnegie Mellon University). Gaussian is a federally registered
 trademark of Gaussian, Inc.
  
 This software contains proprietary and confidential information,
 including trade secrets, belonging to Gaussian, Inc.
  
 This software is provided under written license and may be
 used, copied, transmitted, or stored only in accord with that
 written license.
  
 The following legend is applicable only to US Government
 contracts under FAR:
  
                    RESTRICTED RIGHTS LEGEND
  
 Use, reproduction and disclosure by the US Government is
 subject to restrictions as set forth in subparagraphs (a)
 and (c) of the Commercial Computer Software - Restricted
 Rights clause in FAR 52.227-19.
  
 Gaussian, Inc.
 340 Quinnipiac St., Bldg. 40, Wallingford CT 06492
  
  
 ---------------------------------------------------------------
 Warning -- This program may not be used in any manner that
 competes with the business of Gaussian, Inc. or will provide
 assistance to any competitor of Gaussian, Inc.  The licensee
 of this program is prohibited from giving any competitor of
 Gaussian, Inc. access to this program.  By using this program,
 the user acknowledges that Gaussian, Inc. is engaged in the
 business of creating and licensing software in the field of
 computational chemistry and represents and warrants to the
 licensee that it is not a competitor of Gaussian, Inc. and that
 it will not use this program in any manner prohibited above.
 ---------------------------------------------------------------
  

 Cite this work as:
 Gaussian 09, Revision D.01,
 M. J. Frisch, G. W. Trucks, H. B. Schlegel, G. E. Scuseria, 
 M. A. Robb, J. R. Cheeseman, G. Scalmani, V. Barone, B. Mennucci, 
 G. A. Petersson, H. Nakatsuji, M. Caricato, X. Li, H. P. Hratchian, 
 A. F. Izmaylov, J. Bloino, G. Zheng, J. L. Sonnenberg, M. Hada, 
 M. Ehara, K. Toyota, R. Fukuda, J. Hasegawa, M. Ishida, T. Nakajima, 
 Y. Honda, O. Kitao, H. Nakai, T. Vreven, J. A. Montgomery, Jr., 
 J. E. Peralta, F. Ogliaro, M. Bearpark, J. J. Heyd, E. Brothers, 
 K. N. Kudin, V. N. Staroverov, T. Keith, R. Kobayashi, J. Normand, 
 K. Raghavachari, A. Rendell, J. C. Burant, S. S. Iyengar, J. Tomasi, 
 M. Cossi, N. Rega, J. M. Millam, M. Klene, J. E. Knox, J. B. Cross, 
 V. Bakken, C. Adamo, J. Jaramillo, R. Gomperts, R. E. Stratmann, 
 O. Yazyev, A. J. Austin, R. Cammi, C. Pomelli, J. W. Ochterski, 
 R. L. Martin, K. Morokuma, V. G. Zakrzewski, G. A. Voth, 
 P. Salvador, J. J. Dannenberg, S. Dapprich, A. D. Daniels, 
 O. Farkas, J. B. Foresman, J. V. Ortiz, J. Cioslowski, 
 and D. J. Fox, Gaussian, Inc., Wallingford CT, 2013.
 
 ******************************************
 Gaussian 09:  AS64L-G09RevD.01 24-Apr-2013
                19-Jan-2019 
 ******************************************
 %Chk=BLIND01341
 %Mem=1GB
 %NProcShared=48
 Will use up to   48 processors via shared memory.
 ---------------------------------------------
 #T M05/Gen test Massage SCF=(fermi,maxcyc=60)
 ---------------------------------------------
 -------
 M05 opt
 -------
 Symbolic Z-matrix:
 Charge =  0 Multiplicity = 1
 6                     0.27677   0.77846  -0.59876 
 6                     0.08495  -0.44408  -1.30192 
 16                    0.82257   0.91365   1.06628 
 16                    0.33789  -2.04673  -0.5933 
 6                     0.10897  -0.55422   1.75929 
 6                    -0.08069  -1.72708   1.09892 
 6                     0.03802   1.84277  -1.44465 
 7                    -0.26901  -0.366    -2.56147 
 16                   -0.36939   1.23245  -3.01512 
 6                    -0.22481  -0.41687   3.13799 
 7                    -0.45786  -0.26445   4.26655 
 6                    -0.62136  -2.86652   1.76473 
 7                    -1.03097  -3.82768   2.27396 
 6                     0.12397   3.22749  -1.16122 
 7                     0.1985    4.36786  -0.94888 
 6                    -0.40706   0.87116   7.26793 
 6                    -1.35777  -0.01708   6.69087 
 16                    1.06123   0.38104   8.10005 
 16                   -1.19606  -1.78016   6.69052 
 6                     1.46515  -1.09219   7.19973 
 6                     0.56764  -1.94791   6.64309 
 6                    -0.84886   2.17237   7.13763 
 7                    -2.43207   0.51249   6.15862 
 16                   -2.39148   2.1659    6.34699 
 6                     2.86645  -1.34503   7.14031 
 7                     4.01542  -1.52126   7.13923 
 6                     0.99756  -3.13413   5.97827 
 7                     1.30074  -4.12582   5.45334 
 6                    -0.22128   3.36231   7.57962 
 7                     0.27501   4.34833   7.9437 
 
                    Distance matrix (angstroms):
                    1          2          3          4          5
     1  C    0.000000
     2  C    1.423315   0.000000
     3  S    1.757418   2.827694   0.000000
     4  S    2.825849   1.770477   3.428253   0.000000
     5  C    2.713774   3.063280   1.773167   2.795470   0.000000
     6  C    3.047557   2.727187   2.791121   1.772288   1.359281
     7  C    1.380327   2.291783   2.789903   3.992857   4.001979
     8  N    2.336642   1.310672   3.998700   2.658358   4.341342
     9  S    2.542129   2.439721   4.263822   4.137445   5.120151
    10  C    3.955208   4.450782   2.675676   4.110426   1.425163
    11  N    5.029770   5.597745   3.642685   5.237162   2.586817
    12  C    4.436049   3.971317   4.106384   2.674416   2.424897
    13  N    5.583831   5.047859   5.232040   3.642352   3.504263
    14  C    2.517432   3.674472   3.286888   5.309014   4.778168
    15  N    3.607292   4.826214   4.047461   6.425950   5.618639
    16  C    7.896904   8.684140   6.322526   8.418315   5.713421
    17  C    7.512878   8.133169   6.103784   7.749444   5.173041
    18  S    8.743145   9.488463   7.057943   9.054921   6.479720
    19  S    7.864434   8.203970   6.554657   7.448361   5.246242
    20  C    8.107281   8.637305   6.485024   7.931785   5.632680
    21  C    7.743518   8.100472   6.273303   7.240712   5.099440
    22  C    7.941145   8.885032   6.421791   8.886869   6.105596
    23  N    7.284968   7.931585   6.056860   7.733737   5.191229
    24  S    7.568886   8.452841   6.307470   8.565241   5.890528
    25  C    8.432602   8.934182   6.795066   8.166680   6.097907
    26  N    8.896216   9.373467   7.280373   8.578598   6.718581
    27  C    7.686691   7.814755   6.367323   6.693518   5.024477
    28  N    7.856742   7.788895   6.698599   6.466189   5.274723
    29  C    8.591292   9.667685   7.036280   9.816669   7.023144
    30  N    9.258378  10.415600   7.706865  10.666818   7.893635
                    6          7          8          9         10
     6  C    0.000000
     7  C    4.384939   0.000000
     8  N    3.909794   2.494036   0.000000
     9  S    5.076167   1.733444   1.664607   0.000000
    10  C    2.428007   5.116215   5.699860   6.371958   0.000000
    11  N    3.509330   6.107712   6.831389   7.434461   1.162408
    12  C    1.426163   5.736923   5.009263   6.301738   2.836178
    13  N    2.587713   6.864751   5.995430   7.349618   3.609722
    14  C    5.449573   1.416040   3.876636   2.767765   5.646781
    15  N    6.435818   2.578302   5.022796   3.797715   6.306769
    16  C    6.701795   8.777888   9.907919  10.289463   4.329973
    17  C    5.985391   8.461327   9.322715   9.835873   3.750520
    18  S    7.400264   9.710044  10.770127  11.239149   5.187733
    19  S    5.702001   8.990529   9.405244  10.196006   3.927132
    20  C    6.325549   9.239917   9.940611  10.635441   4.450816
    21  C    5.586313   8.947701   9.376908  10.211448   3.906122
    22  C    7.229229   8.634282  10.042517  10.207429   4.805279
    23  N    6.012087   8.104369   9.027214   9.430292   3.854857
    24  S    6.930893   8.168024   9.501375   9.623366   4.654337
    25  C    6.732747   9.584552  10.242759  10.965706   5.141585
    26  N    7.301079  10.040890  10.667453  11.398257   5.933728
    27  C    5.191385   8.988330   9.066090  10.090423   4.116420
    28  N    5.159775   9.208740   8.990974  10.159489   4.630821
    29  C    8.241424   9.154988  10.804831  10.807715   5.831831
    30  N    9.159040   9.719832  11.527335  11.411378   6.786141
                   11         12         13         14         15
    11  N    0.000000
    12  C    3.613393   0.000000
    13  N    4.122555   1.162293   0.000000
    14  C    6.480188   6.800997   7.931563   0.000000
    15  N    7.006418   7.769948   8.891861   1.162367   0.000000
    16  C    3.209439   6.655936   6.885357   8.768401   8.950402
    17  C    2.597761   5.738335   5.842650   8.624273   8.945141
    18  S    4.173727   7.315332   7.485582   9.734051   9.925835
    19  S    2.952614   5.076800   4.870893   9.405784   9.904717
    20  C    3.603701   6.086139   6.162529   9.505988   9.890219
    21  C    3.087652   5.104510   5.017808   9.374902   9.882473
    22  C    3.786037   7.369548   7.725867   8.422029   8.444458
    23  N    2.842725   5.831179   5.990887   8.214902   8.502966
    24  S    3.738149   7.032477   7.373168   7.989221   8.048999
    25  C    4.525167   6.586092   6.710790   9.866328  10.256223
    26  N    5.462788   7.224593   7.379460  10.324311  10.708325
    27  C    3.644623   4.521783   4.279941   9.602377  10.242258
    28  N    4.405826   4.345826   3.954011   9.960339  10.693274
    29  C    4.917905   8.530612   8.972265   8.748695   8.597835
    30  N    5.944429   9.541340  10.034869   9.174889   8.892931
                   16         17         18         19         20
    16  C    0.000000
    17  C    1.423315   0.000000
    18  S    1.757418   2.827694   0.000000
    19  S    2.825849   1.770477   3.428253   0.000000
    20  C    2.713774   3.063280   1.773167   2.795470   0.000000
    21  C    3.047557   2.727187   2.791121   1.772288   1.359281
    22  C    1.380327   2.291783   2.789903   3.992857   4.001979
    23  N    2.336642   1.310672   3.998700   2.658358   4.341342
    24  S    2.542129   2.439721   4.263822   4.137445   5.120151
    25  C    3.955208   4.450782   2.675676   4.110426   1.425163
    26  N    5.029770   5.597745   3.642685   5.237162   2.586817
    27  C    4.436049   3.971317   4.106384   2.674416   2.424897
    28  N    5.583831   5.047859   5.232040   3.642352   3.504263
    29  C    2.517432   3.674472   3.286888   5.309014   4.778168
    30  N    3.607292   4.826214   4.047461   6.425950   5.618639
                   21         22         23         24         25
    21  C    0.000000
    22  C    4.384939   0.000000
    23  N    3.909794   2.494036   0.000000
    24  S    5.076167   1.733444   1.664607   0.000000
    25  C    2.428007   5.116215   5.699860   6.371958   0.000000
    26  N    3.509330   6.107712   6.831389   7.434461   1.162408
    27  C    1.426163   5.736923   5.009263   6.301738   2.836178
    28  N    2.587713   6.864751   5.995430   7.349618   3.609722
    29  C    5.449573   1.416040   3.876636   2.767765   5.646781
    30  N    6.435818   2.578302   5.022796   3.797715   6.306769
                   26         27         28         29         30
    26  N    0.000000
    27  C    3.613393   0.000000
    28  N    4.122555   1.162293   0.000000
    29  C    6.480188   6.800997   7.931563   0.000000
    30  N    7.006418   7.769948   8.891861   1.162367   0.000000
 Symmetry turned off by external request.
 Framework group  C1[X(C16N8S6)]
 Deg. of freedom    84
 Rotational constants (GHZ):      0.1678172      0.0640323      0.0538638
   714 basis functions,  1518 primitive gaussians,   774 cartesian basis functions
   124 alpha electrons      124 beta electrons
       nuclear repulsion energy      3473.7496453855 Hartrees.
 IMHF & INEx in M05                  599485                  400514
 NAtoms=   30 NActive=   30 NUniq=   30 SFac= 1.00D+00 NAtFMM=   60 NAOKFM=F Big=F
 PrsmSu:  requested number of processors reduced to:  25 ShMem   1 Linda.
 ExpMin= 3.99D-02 ExpMax= 1.11D+05 ExpMxC= 1.07D+03 IAcc=3 IRadAn=         5 AccDes= 0.00D+00
 Harris functional with IExCor= 1009 and IRadAn=       5 diagonalized for initial guess.
 HarFok:  IExCor= 1009 AccDes= 0.00D+00 IRadAn=         5 IDoV= 1 UseB2=F ITyADJ=14
 ICtDFT=  3500011 ScaDFX=  1.000000  1.000000  1.000000  1.000000
 FoFCou: FMM=F IPFlag=           0 FMFlag=      100000 FMFlg1=           0
         NFxFlg=           0 DoJE=T BraDBF=F KetDBF=T FulRan=T
         wScrn=  0.000000 ICntrl=     500 IOpCl=  0 I1Cent=   200000004 NGrid=           0
         NMat0=    1 NMatS0=      1 NMatT0=    0 NMatD0=    1 NMtDS0=    0 NMtDT0=    0
 Symmetry not used in FoFCou.
 Restarting incremental Fock formation.
 SCF Done:  E(RM05) =  -3448.34721535     A.U. after   21 cycles
            NFock= 21  Conv=0.39D-08     -V/T= 2.0058

 **********************************************************************

            Population analysis using the SCF density.

 **********************************************************************

 Alpha  occ. eigenvalues --  -90.55164 -90.53326 -90.52520 -90.52043 -90.50771
 Alpha  occ. eigenvalues --  -90.49888 -15.08284 -15.06058 -15.05039 -15.05010
 Alpha  occ. eigenvalues --  -15.04730 -15.03560 -15.03259 -15.03245 -10.90037
 Alpha  occ. eigenvalues --  -10.89718 -10.89467 -10.88494 -10.88061 -10.87899
 Alpha  occ. eigenvalues --  -10.87482 -10.87176 -10.86690 -10.85320 -10.85235
 Alpha  occ. eigenvalues --  -10.84633 -10.84039 -10.83259 -10.82818 -10.82717
 Alpha  occ. eigenvalues --   -8.57767  -8.55927  -8.55423  -8.54971  -8.53676
 Alpha  occ. eigenvalues --   -8.52814  -6.40489  -6.40138  -6.39829  -6.38652
 Alpha  occ. eigenvalues --   -6.38305  -6.38171  -6.37990  -6.37857  -6.37708
 Alpha  occ. eigenvalues --   -6.37398  -6.37395  -6.36940  -6.36423  -6.36110
 Alpha  occ. eigenvalues --   -6.35653  -6.35556  -6.35245  -6.34782  -1.21009
 Alpha  occ. eigenvalues --   -1.19003  -1.14010  -1.12545  -1.12262  -1.11945
 Alpha  occ. eigenvalues --   -1.11119  -1.10480  -1.08419  -1.06500  -1.04307
 Alpha  occ. eigenvalues --   -1.02465  -0.99453  -0.97994  -0.97474  -0.96146
 Alpha  occ. eigenvalues --   -0.88611  -0.86707  -0.85227  -0.83376  -0.82802
 Alpha  occ. eigenvalues --   -0.80973  -0.74546  -0.72579  -0.71837  -0.70006
 Alpha  occ. eigenvalues --   -0.68457  -0.66571  -0.65223  -0.63326  -0.60119
 Alpha  occ. eigenvalues --   -0.60073  -0.57661  -0.56239  -0.56046  -0.54377
 Alpha  occ. eigenvalues --   -0.54062  -0.53688  -0.53090  -0.52642  -0.52244
 Alpha  occ. eigenvalues --   -0.51609  -0.51590  -0.51100  -0.51066  -0.50945
 Alpha  occ. eigenvalues --   -0.49983  -0.49677  -0.49291  -0.48740  -0.48076
 Alpha  occ. eigenvalues --   -0.47884  -0.47456  -0.47114  -0.46579  -0.45994
 Alpha  occ. eigenvalues --   -0.45693  -0.45223  -0.45060  -0.44274  -0.44180
 Alpha  occ. eigenvalues --   -0.43655  -0.42384  -0.41317  -0.40224  -0.38274
 Alpha  occ. eigenvalues --   -0.38140  -0.36330  -0.33735  -0.31846
 Alpha virt. eigenvalues --   -0.10266  -0.08793  -0.08260  -0.07007  -0.02850
 Alpha virt. eigenvalues --   -0.01740  -0.01472  -0.00996  -0.00717  -0.00577
 Alpha virt. eigenvalues --   -0.00235   0.00385   0.00440   0.01074   0.01449
 Alpha virt. eigenvalues --    0.01713   0.01842   0.02039   0.02187   0.02481
 Alpha virt. eigenvalues --    0.02813   0.03213   0.03283   0.03445   0.03760
 Alpha virt. eigenvalues --    0.04028   0.04407   0.04523   0.04638   0.05024
 Alpha virt. eigenvalues --    0.05395   0.05813   0.05931   0.06214   0.06316
 Alpha virt. eigenvalues --    0.06596   0.07111   0.07199   0.07258   0.07550
 Alpha virt. eigenvalues --    0.07914   0.08031   0.08207   0.08655   0.08735
 Alpha virt. eigenvalues --    0.08935   0.09302   0.09431   0.09730   0.10190
 Alpha virt. eigenvalues --    0.10303   0.10485   0.10616   0.11041   0.11282
 Alpha virt. eigenvalues --    0.11431   0.11546   0.11775   0.11982   0.12126
 Alpha virt. eigenvalues --    0.12394   0.12556   0.12798   0.13206   0.13585
 Alpha virt. eigenvalues --    0.13761   0.13855   0.14035   0.14325   0.14614
 Alpha virt. eigenvalues --    0.14714   0.14845   0.15189   0.15306   0.15771
 Alpha virt. eigenvalues --    0.15891   0.16124   0.16315   0.16421   0.16678
 Alpha virt. eigenvalues --    0.16728   0.17038   0.17082   0.17268   0.17352
 Alpha virt. eigenvalues --    0.17916   0.18103   0.18511   0.18964   0.19090
 Alpha virt. eigenvalues --    0.19152   0.19335   0.19542   0.19755   0.19990
 Alpha virt. eigenvalues --    0.20315   0.20516   0.20877   0.21085   0.21201
 Alpha virt. eigenvalues --    0.21476   0.21616   0.21967   0.22286   0.22368
 Alpha virt. eigenvalues --    0.22448   0.22612   0.23140   0.23398   0.23571
 Alpha virt. eigenvalues --    0.23648   0.23866   0.24014   0.24131   0.24603
 Alpha virt. eigenvalues --    0.24646   0.25163   0.25193   0.25567   0.25595
 Alpha virt. eigenvalues --    0.25765   0.25888   0.26122   0.26173   0.26524
 Alpha virt. eigenvalues --    0.26829   0.26963   0.27060   0.27314   0.27627
 Alpha virt. eigenvalues --    0.27875   0.27952   0.28257   0.28626   0.29048
 Alpha virt. eigenvalues --    0.29208   0.29512   0.29755   0.29921   0.30115
 Alpha virt. eigenvalues --    0.30359   0.30799   0.31004   0.31232   0.31506
 Alpha virt. eigenvalues --    0.31673   0.32372   0.32948   0.33256   0.33603
 Alpha virt. eigenvalues --    0.33863   0.34180   0.34698   0.34926   0.35220
 Alpha virt. eigenvalues --    0.35506   0.36024   0.36076   0.36572   0.36860
 Alpha virt. eigenvalues --    0.36976   0.37385   0.37600   0.38205   0.38687
 Alpha virt. eigenvalues --    0.38755   0.38906   0.39204   0.39753   0.40002
 Alpha virt. eigenvalues --    0.40392   0.40790   0.41671   0.41845   0.42157
 Alpha virt. eigenvalues --    0.42457   0.42669   0.43547   0.44031   0.44728
 Alpha virt. eigenvalues --    0.44981   0.45044   0.45674   0.45959   0.46236
 Alpha virt. eigenvalues --    0.46845   0.47012   0.47235   0.48155   0.48288
 Alpha virt. eigenvalues --    0.48977   0.49546   0.50072   0.50623   0.51155
 Alpha virt. eigenvalues --    0.51609   0.51736   0.52197   0.52546   0.53122
 Alpha virt. eigenvalues --    0.53286   0.53871   0.53887   0.54612   0.54794
 Alpha virt. eigenvalues --    0.55343   0.55511   0.55779   0.56133   0.56465
 Alpha virt. eigenvalues --    0.56833   0.56957   0.57094   0.57440   0.57953
 Alpha virt. eigenvalues --    0.58061   0.58235   0.58489   0.58919   0.59230
 Alpha virt. eigenvalues --    0.59866   0.60045   0.60478   0.60938   0.61043
 Alpha virt. eigenvalues --    0.61435   0.61881   0.61917   0.61960   0.62812
 Alpha virt. eigenvalues --    0.63079   0.63491   0.63609   0.63957   0.64265
 Alpha virt. eigenvalues --    0.64434   0.64786   0.64903   0.65485   0.65627
 Alpha virt. eigenvalues --    0.65877   0.66630   0.67178   0.67430   0.67522
 Alpha virt. eigenvalues --    0.67854   0.68205   0.68367   0.68873   0.70039
 Alpha virt. eigenvalues --    0.70345   0.70670   0.70710   0.71035   0.71318
 Alpha virt. eigenvalues --    0.71900   0.72106   0.72721   0.73209   0.73437
 Alpha virt. eigenvalues --    0.74004   0.74450   0.74754   0.75186   0.75649
 Alpha virt. eigenvalues --    0.76026   0.76206   0.76646   0.77133   0.77323
 Alpha virt. eigenvalues --    0.77792   0.78030   0.78198   0.78659   0.78876
 Alpha virt. eigenvalues --    0.79228   0.79561   0.79999   0.80335   0.80444
 Alpha virt. eigenvalues --    0.80481   0.81209   0.81492   0.81822   0.82171
 Alpha virt. eigenvalues --    0.82627   0.83182   0.83466   0.83657   0.83916
 Alpha virt. eigenvalues --    0.84293   0.84376   0.84606   0.85177   0.85892
 Alpha virt. eigenvalues --    0.86282   0.86699   0.86968   0.87287   0.87692
 Alpha virt. eigenvalues --    0.87782   0.88100   0.88499   0.88941   0.89112
 Alpha virt. eigenvalues --    0.89361   0.89586   0.89969   0.90127   0.90586
 Alpha virt. eigenvalues --    0.90783   0.90894   0.91473   0.91665   0.92082
 Alpha virt. eigenvalues --    0.92525   0.92727   0.93171   0.93421   0.93930
 Alpha virt. eigenvalues --    0.94382   0.94675   0.95173   0.95540   0.95902
 Alpha virt. eigenvalues --    0.96013   0.96878   0.97121   0.97771   0.98179
 Alpha virt. eigenvalues --    0.98573   0.98918   0.99365   0.99662   1.00296
 Alpha virt. eigenvalues --    1.00441   1.01116   1.02171   1.02448   1.03169
 Alpha virt. eigenvalues --    1.03518   1.03956   1.04585   1.05326   1.05925
 Alpha virt. eigenvalues --    1.06283   1.06685   1.06934   1.07293   1.07808
 Alpha virt. eigenvalues --    1.08009   1.08988   1.09214   1.09493   1.10232
 Alpha virt. eigenvalues --    1.10863   1.11499   1.11821   1.12229   1.12938
 Alpha virt. eigenvalues --    1.13162   1.13238   1.14281   1.14511   1.15000
 Alpha virt. eigenvalues --    1.15410   1.16174   1.16743   1.17242   1.18043
 Alpha virt. eigenvalues --    1.18775   1.19697   1.19918   1.20454   1.20969
 Alpha virt. eigenvalues --    1.21673   1.21967   1.22404   1.22997   1.23438
 Alpha virt. eigenvalues --    1.24207   1.24755   1.25071   1.25253   1.26640
 Alpha virt. eigenvalues --    1.27218   1.27576   1.28419   1.29226   1.29414
 Alpha virt. eigenvalues --    1.30607   1.31528   1.32245   1.32932   1.34046
 Alpha virt. eigenvalues --    1.35373   1.36447   1.37311   1.38349   1.39972
 Alpha virt. eigenvalues --    1.40527   1.41459   1.41560   1.41948   1.42914
 Alpha virt. eigenvalues --    1.43231   1.43468   1.44607   1.45140   1.45290
 Alpha virt. eigenvalues --    1.46302   1.47074   1.47460   1.48126   1.49057
 Alpha virt. eigenvalues --    1.49250   1.50321   1.50644   1.50960   1.51462
 Alpha virt. eigenvalues --    1.52134   1.52365   1.52611   1.52796   1.53150
 Alpha virt. eigenvalues --    1.53601   1.54566   1.54790   1.55001   1.55762
 Alpha virt. eigenvalues --    1.56146   1.56694   1.56985   1.57064   1.57384
 Alpha virt. eigenvalues --    1.58129   1.58820   1.59451   1.59926   1.60585
 Alpha virt. eigenvalues --    1.61014   1.61973   1.62042   1.62674   1.62954
 Alpha virt. eigenvalues --    1.63749   1.64119   1.64817   1.65057   1.65276
 Alpha virt. eigenvalues --    1.66198   1.66269   1.66783   1.67092   1.68022
 Alpha virt. eigenvalues --    1.68967   1.69671   1.69954   1.71210   1.71409
 Alpha virt. eigenvalues --    1.72319   1.72510   1.72807   1.73560   1.74608
 Alpha virt. eigenvalues --    1.74985   1.75514   1.77143   1.77331   1.78895
 Alpha virt. eigenvalues --    1.79270   1.79689   1.80363   1.80683   1.81243
 Alpha virt. eigenvalues --    1.82470   1.83485   1.84299   1.84982   1.86823
 Alpha virt. eigenvalues --    1.87611   1.88481   1.89552   1.90365   1.91319
 Alpha virt. eigenvalues --    1.91692   1.92149   1.92546   1.93513   1.94408
 Alpha virt. eigenvalues --    1.95182   1.95768   1.96949   1.97707   1.99259
 Alpha virt. eigenvalues --    2.00135   2.00377   2.01599   2.02476   2.04323
 Alpha virt. eigenvalues --    2.05764   2.06380   2.07924   2.08257   2.08656
 Alpha virt. eigenvalues --    2.09669   2.10340   2.10885   2.12009   2.13242
 Alpha virt. eigenvalues --    2.13415   2.16005   2.17596   2.19014   2.20622
 Alpha virt. eigenvalues --    2.23513   2.24931   2.26948   2.29042   2.29820
 Alpha virt. eigenvalues --    2.32758   2.33314   2.35543   2.36391   2.37386
 Alpha virt. eigenvalues --    2.37788   2.38041   2.38886   2.39352   2.39521
 Alpha virt. eigenvalues --    2.40414   2.41261   2.41400   2.41943   2.42500
 Alpha virt. eigenvalues --    2.42645   2.43418   2.43857   2.45339   2.45712
 Alpha virt. eigenvalues --    2.46853   2.47983   2.48783   2.51124   2.52963
 Alpha virt. eigenvalues --    2.53335   2.55135   2.56330   2.58361   2.61317
 Alpha virt. eigenvalues --    2.65058   2.67168   2.69785   2.70979   2.71937
 Alpha virt. eigenvalues --    2.72878   2.73171   2.73795   2.75198   2.76776
 Alpha virt. eigenvalues --    2.78990   2.79428   2.82611   2.84222   2.87008
 Alpha virt. eigenvalues --    2.88258   2.94615   2.96611   3.01575   3.02148
 Alpha virt. eigenvalues --    3.03270   3.11207   3.13699   3.14790   3.15014
 Alpha virt. eigenvalues --    3.16529   3.18878   3.20441   3.24192   3.27280
 Alpha virt. eigenvalues --    3.29223   3.32444   3.36051   3.39721   3.45630
 Alpha virt. eigenvalues --    3.49676   3.63398   3.74048   3.84820   3.94270
          Condensed to atoms (all electrons):
 Mulliken charges:
               1
     1  C    0.308986
     2  C    0.114225
     3  S    0.341872
     4  S    0.280320
     5  C    1.352690
     6  C    1.171266
     7  C    0.911689
     8  N   -1.102941
     9  S    0.555852
    10  C   -1.731991
    11  N    0.187970
    12  C   -1.258739
    13  N   -0.082523
    14  C   -0.865474
    15  N   -0.166744
    16  C    0.321614
    17  C    0.439672
    18  S    0.308809
    19  S    0.092992
    20  C    0.670780
    21  C    1.637152
    22  C    0.996735
    23  N   -1.223681
    24  S    0.510511
    25  C   -1.074724
    26  N   -0.162540
    27  C   -1.211556
    28  N   -0.130250
    29  C   -1.067327
    30  N   -0.124645
 Sum of Mulliken charges =  -0.00000
 Mulliken charges with hydrogens summed into heavy atoms:
               1
     1  C    0.308986
     2  C    0.114225
     3  S    0.341872
     4  S    0.280320
     5  C    1.352690
     6  C    1.171266
     7  C    0.911689
     8  N   -1.102941
     9  S    0.555852
    10  C   -1.731991
    11  N    0.187970
    12  C   -1.258739
    13  N   -0.082523
    14  C   -0.865474
    15  N   -0.166744
    16  C    0.321614
    17  C    0.439672
    18  S    0.308809
    19  S    0.092992
    20  C    0.670780
    21  C    1.637152
    22  C    0.996735
    23  N   -1.223681
    24  S    0.510511
    25  C   -1.074724
    26  N   -0.162540
    27  C   -1.211556
    28  N   -0.130250
    29  C   -1.067327
    30  N   -0.124645
 Electronic spatial extent (au):  <R**2>=          29273.5454
 Charge=              0.0000 electrons
 Dipole moment (field-independent basis, Debye):
    X=             -3.1353    Y=              1.3294    Z=             -4.9224  Tot=              5.9857

 Test job not archived.
 1\1\GINC-CHIMERA-NODE48\SP\RM05\Gen\C16N8S6\CONNORNM\19-Jan-2019\0\\#T
  M05/Gen test Massage SCF=(fermi,maxcyc=60)\\M05 opt\\0,1\C,0,0.276772
 97,0.7784555,-0.59875926\C,0,0.08494923,-0.44408271,-1.30191688\S,0,0.
 82256726,0.91364595,1.06627791\S,0,0.33789125,-2.04672738,-0.5932994\C
 ,0,0.10896562,-0.55422048,1.75928795\C,0,-0.0806874,-1.72707812,1.0989
 2385\C,0,0.03802196,1.84276924,-1.44465372\N,0,-0.26900695,-0.36600131
 ,-2.5614717\S,0,-0.36939484,1.2324501,-3.01511501\C,0,-0.22480576,-0.4
 1686522,3.13799019\N,0,-0.45785676,-0.26445263,4.26655151\C,0,-0.62136
 075,-2.8665175,1.76472575\N,0,-1.03096551,-3.82767884,2.27395944\C,0,0
 .12397268,3.22748743,-1.16121687\N,0,0.1985005,4.36786254,-0.9488819\C
 ,0,-0.40706067,0.87116192,7.26793442\C,0,-1.35776976,-0.01708215,6.690
 87171\S,0,1.06123228,0.38104171,8.10004897\S,0,-1.19605817,-1.78015831
 ,6.69051988\C,0,1.46515355,-1.09218562,7.19973184\C,0,0.56763528,-1.94
 79062,6.64309255\C,0,-0.84886342,2.17236703,7.13763166\N,0,-2.43207213
 ,0.51248646,6.15862033\S,0,-2.39148159,2.16590296,6.34699016\C,0,2.866
 44814,-1.34503319,7.14030781\N,0,4.01541958,-1.5212617,7.13923049\C,0,
 0.99756385,-3.1341272,5.97827445\N,0,1.30073644,-4.1258226,5.45334327\
 C,0,-0.22128397,3.3623064,7.57962349\N,0,0.27501114,4.34832686,7.94369
 866\\Version=AS64L-G09RevD.01\HF=-3448.3472153\RMSD=3.923e-09\Dipole=-
 1.2335402,0.523034,-1.9366358\Quadrupole=8.6639343,-16.9468437,8.28290
 94,-1.370349,-19.3258643,1.4670276\PG=C01 [X(C16N8S6)]\\@


 IT CANNOT BE MY BEAUTY, FOR I HAVE NONE; AND IT CANNOT BE MY WIT,
 FOR HE HAS NOT ENOUGH TO KNOW THAT I HAVE ANY.
 -- CATHARINE SEDLEY, PUZZLED ABOUT WHY SHE WAS MISTRESS TO JAMES II
 Job cpu time:       0 days 12 hours 48 minutes 20.0 seconds.
 File lengths (MBytes):  RWF=    225 Int=      0 D2E=      0 Chk=     19 Scr=      1
 Normal termination of Gaussian 09 at Sat Jan 19 12:14:40 2019.
