 Entering Gaussian System, Link 0=/data/szalewicgrp/connornm/opt/Gaussian/g09-M05-par/g09/g09
 AtFile(1): blind-aug.gbs
 Initial command:
 /data/szalewicgrp/connornm/opt/Gaussian/g09-M05-par/g09/l1.exe "/scratch/local/Gau-42315.inp" -scrdir="/scratch/local/"
 Entering Link 1 = /data/szalewicgrp/connornm/opt/Gaussian/g09-M05-par/g09/l1.exe PID=     42316.
  
 Copyright (c) 1988,1990,1992,1993,1995,1998,2003,2009,2013,
            Gaussian, Inc.  All Rights Reserved.
  
 This is part of the Gaussian(R) 09 program.  It is based on
 the Gaussian(R) 03 system (copyright 2003, Gaussian, Inc.),
 the Gaussian(R) 98 system (copyright 1998, Gaussian, Inc.),
 the Gaussian(R) 94 system (copyright 1995, Gaussian, Inc.),
 the Gaussian 92(TM) system (copyright 1992, Gaussian, Inc.),
 the Gaussian 90(TM) system (copyright 1990, Gaussian, Inc.),
 the Gaussian 88(TM) system (copyright 1988, Gaussian, Inc.),
 the Gaussian 86(TM) system (copyright 1986, Carnegie Mellon
 University), and the Gaussian 82(TM) system (copyright 1983,
 Carnegie Mellon University). Gaussian is a federally registered
 trademark of Gaussian, Inc.
  
 This software contains proprietary and confidential information,
 including trade secrets, belonging to Gaussian, Inc.
  
 This software is provided under written license and may be
 used, copied, transmitted, or stored only in accord with that
 written license.
  
 The following legend is applicable only to US Government
 contracts under FAR:
  
                    RESTRICTED RIGHTS LEGEND
  
 Use, reproduction and disclosure by the US Government is
 subject to restrictions as set forth in subparagraphs (a)
 and (c) of the Commercial Computer Software - Restricted
 Rights clause in FAR 52.227-19.
  
 Gaussian, Inc.
 340 Quinnipiac St., Bldg. 40, Wallingford CT 06492
  
  
 ---------------------------------------------------------------
 Warning -- This program may not be used in any manner that
 competes with the business of Gaussian, Inc. or will provide
 assistance to any competitor of Gaussian, Inc.  The licensee
 of this program is prohibited from giving any competitor of
 Gaussian, Inc. access to this program.  By using this program,
 the user acknowledges that Gaussian, Inc. is engaged in the
 business of creating and licensing software in the field of
 computational chemistry and represents and warrants to the
 licensee that it is not a competitor of Gaussian, Inc. and that
 it will not use this program in any manner prohibited above.
 ---------------------------------------------------------------
  

 Cite this work as:
 Gaussian 09, Revision D.01,
 M. J. Frisch, G. W. Trucks, H. B. Schlegel, G. E. Scuseria, 
 M. A. Robb, J. R. Cheeseman, G. Scalmani, V. Barone, B. Mennucci, 
 G. A. Petersson, H. Nakatsuji, M. Caricato, X. Li, H. P. Hratchian, 
 A. F. Izmaylov, J. Bloino, G. Zheng, J. L. Sonnenberg, M. Hada, 
 M. Ehara, K. Toyota, R. Fukuda, J. Hasegawa, M. Ishida, T. Nakajima, 
 Y. Honda, O. Kitao, H. Nakai, T. Vreven, J. A. Montgomery, Jr., 
 J. E. Peralta, F. Ogliaro, M. Bearpark, J. J. Heyd, E. Brothers, 
 K. N. Kudin, V. N. Staroverov, T. Keith, R. Kobayashi, J. Normand, 
 K. Raghavachari, A. Rendell, J. C. Burant, S. S. Iyengar, J. Tomasi, 
 M. Cossi, N. Rega, J. M. Millam, M. Klene, J. E. Knox, J. B. Cross, 
 V. Bakken, C. Adamo, J. Jaramillo, R. Gomperts, R. E. Stratmann, 
 O. Yazyev, A. J. Austin, R. Cammi, C. Pomelli, J. W. Ochterski, 
 R. L. Martin, K. Morokuma, V. G. Zakrzewski, G. A. Voth, 
 P. Salvador, J. J. Dannenberg, S. Dapprich, A. D. Daniels, 
 O. Farkas, J. B. Foresman, J. V. Ortiz, J. Cioslowski, 
 and D. J. Fox, Gaussian, Inc., Wallingford CT, 2013.
 
 ******************************************
 Gaussian 09:  AS64L-G09RevD.01 24-Apr-2013
                19-Jan-2019 
 ******************************************
 %Chk=BLIND01075_mB
 %Mem=1GB
 %NProcShared=48
 Will use up to   48 processors via shared memory.
 ---------------------------------------------
 #T M05/Gen test Massage SCF=(fermi,maxcyc=60)
 ---------------------------------------------
 -------
 M05 opt
 -------
 Symbolic Z-matrix:
 Charge =  0 Multiplicity = 1
 6                     0.04023   0.69825   11.98998 
 6                     0.44738   1.1916    10.7185 
 16                   -1.14685  -0.57121   12.25042 
 16                   -0.16077   0.57589   9.17394 
 6                    -0.86585  -1.57422   10.81545 
 6                    -0.47612  -1.11616   9.59646 
 6                     0.66587   1.41689   12.98869 
 7                     1.30113   2.18594   10.70281 
 16                    1.66374   2.63512   12.26412 
 6                    -1.13559  -2.95595   11.03711 
 7                    -1.39075  -4.06801   11.25942 
 6                    -0.32371  -2.00485   8.4915 
 7                    -0.21524  -2.68744   7.55703 
 6                     0.53919   1.26688   14.39105 
 7                     0.44032   1.16401   15.54463 
 
                    Distance matrix (angstroms):
                    1          2          3          4          5
     1  C    0.000000
     2  C    1.423315   0.000000
     3  S    1.757418   2.827694   0.000000
     4  S    2.825849   1.770477   3.428253   0.000000
     5  C    2.713774   3.063280   1.773167   2.795470   0.000000
     6  C    3.047557   2.727187   2.791121   1.772288   1.359281
     7  C    1.380327   2.291783   2.789903   3.992857   4.001979
     8  N    2.336642   1.310672   3.998700   2.658358   4.341342
     9  S    2.542129   2.439721   4.263822   4.137445   5.120151
    10  C    3.955208   4.450782   2.675676   4.110426   1.425163
    11  N    5.029770   5.597745   3.642685   5.237162   2.586817
    12  C    4.436049   3.971317   4.106384   2.674416   2.424897
    13  N    5.583831   5.047859   5.232040   3.642352   3.504263
    14  C    2.517432   3.674472   3.286888   5.309014   4.778168
    15  N    3.607292   4.826214   4.047461   6.425950   5.618639
                    6          7          8          9         10
     6  C    0.000000
     7  C    4.384939   0.000000
     8  N    3.909794   2.494036   0.000000
     9  S    5.076167   1.733444   1.664607   0.000000
    10  C    2.428007   5.116215   5.699860   6.371958   0.000000
    11  N    3.509330   6.107712   6.831389   7.434461   1.162408
    12  C    1.426163   5.736923   5.009263   6.301738   2.836178
    13  N    2.587713   6.864751   5.995430   7.349618   3.609722
    14  C    5.449573   1.416040   3.876636   2.767765   5.646781
    15  N    6.435818   2.578302   5.022796   3.797715   6.306769
                   11         12         13         14         15
    11  N    0.000000
    12  C    3.613393   0.000000
    13  N    4.122555   1.162293   0.000000
    14  C    6.480188   6.800997   7.931563   0.000000
    15  N    7.006418   7.769948   8.891861   1.162367   0.000000
 Symmetry turned off by external request.
 Framework group  C1[X(C8N4S3)]
 Deg. of freedom    39
 Rotational constants (GHZ):      0.7722167      0.3388923      0.2463240
   357 basis functions,   759 primitive gaussians,   387 cartesian basis functions
    62 alpha electrons       62 beta electrons
       nuclear repulsion energy      1166.1400391582 Hartrees.
 IMHF & INEx in M05                  599485                  400514
 NAtoms=   15 NActive=   15 NUniq=   15 SFac= 1.00D+00 NAtFMM=   60 NAOKFM=F Big=F
 PrsmSu:  requested number of processors reduced to:  34 ShMem   1 Linda.
 ExpMin= 3.99D-02 ExpMax= 1.11D+05 ExpMxC= 1.07D+03 IAcc=3 IRadAn=         5 AccDes= 0.00D+00
 Harris functional with IExCor= 1009 and IRadAn=       5 diagonalized for initial guess.
 HarFok:  IExCor= 1009 AccDes= 0.00D+00 IRadAn=         5 IDoV= 1 UseB2=F ITyADJ=14
 ICtDFT=  3500011 ScaDFX=  1.000000  1.000000  1.000000  1.000000
 FoFCou: FMM=F IPFlag=           0 FMFlag=      100000 FMFlg1=           0
         NFxFlg=           0 DoJE=T BraDBF=F KetDBF=T FulRan=T
         wScrn=  0.000000 ICntrl=     500 IOpCl=  0 I1Cent=   200000004 NGrid=           0
         NMat0=    1 NMatS0=      1 NMatT0=    0 NMatD0=    1 NMtDS0=    0 NMtDT0=    0
 Symmetry not used in FoFCou.
 SCF Done:  E(RM05) =  -1724.76147773     A.U. after   17 cycles
            NFock= 17  Conv=0.52D-08     -V/T= 2.0061

 **********************************************************************

            Population analysis using the SCF density.

 **********************************************************************

 Alpha  occ. eigenvalues --  -90.56430 -90.53635 -90.53184 -15.08622 -15.05416
 Alpha  occ. eigenvalues --  -15.04969 -15.04933 -10.89944 -10.89826 -10.89736
 Alpha  occ. eigenvalues --  -10.88752 -10.87415 -10.84946 -10.84332 -10.84310
 Alpha  occ. eigenvalues --   -8.57526  -8.55035  -8.54611  -6.40063  -6.39713
 Alpha  occ. eigenvalues --   -6.39401  -6.37597  -6.37282  -6.37165  -6.36855
 Alpha  occ. eigenvalues --   -6.36821  -6.36394  -1.20533  -1.12895  -1.12139
 Alpha  occ. eigenvalues --   -1.11337  -1.07643  -1.03801  -0.98824  -0.97396
 Alpha  occ. eigenvalues --   -0.88003  -0.84555  -0.82236  -0.73686  -0.71297
 Alpha  occ. eigenvalues --   -0.67839  -0.64612  -0.59530  -0.57258  -0.55386
 Alpha  occ. eigenvalues --   -0.53385  -0.52648  -0.52243  -0.51890  -0.50883
 Alpha  occ. eigenvalues --   -0.50387  -0.49357  -0.48215  -0.46805  -0.46074
 Alpha  occ. eigenvalues --   -0.45933  -0.45296  -0.43720  -0.43113  -0.39488
 Alpha  occ. eigenvalues --   -0.37628  -0.33120
 Alpha virt. eigenvalues --   -0.09329  -0.08269  -0.02099  -0.01262  -0.00504
 Alpha virt. eigenvalues --   -0.00362   0.00152   0.01254   0.02020   0.02228
 Alpha virt. eigenvalues --    0.02394   0.02956   0.03189   0.04002   0.04274
 Alpha virt. eigenvalues --    0.04486   0.05427   0.06006   0.06299   0.07066
 Alpha virt. eigenvalues --    0.07271   0.07523   0.07708   0.08288   0.08490
 Alpha virt. eigenvalues --    0.09376   0.10092   0.10391   0.10525   0.10810
 Alpha virt. eigenvalues --    0.11286   0.11390   0.11978   0.12525   0.13228
 Alpha virt. eigenvalues --    0.13486   0.13937   0.14453   0.15075   0.15192
 Alpha virt. eigenvalues --    0.15901   0.16276   0.16673   0.16812   0.17186
 Alpha virt. eigenvalues --    0.17356   0.17842   0.18613   0.19055   0.19558
 Alpha virt. eigenvalues --    0.19861   0.20239   0.20684   0.20946   0.21268
 Alpha virt. eigenvalues --    0.21883   0.22209   0.22582   0.22825   0.23613
 Alpha virt. eigenvalues --    0.23748   0.24112   0.24373   0.24703   0.25260
 Alpha virt. eigenvalues --    0.25697   0.25849   0.26229   0.26622   0.26747
 Alpha virt. eigenvalues --    0.27077   0.28336   0.29193   0.29662   0.30368
 Alpha virt. eigenvalues --    0.30711   0.32419   0.33456   0.34152   0.34716
 Alpha virt. eigenvalues --    0.34950   0.35470   0.36122   0.36933   0.37594
 Alpha virt. eigenvalues --    0.38151   0.39576   0.40726   0.41169   0.42050
 Alpha virt. eigenvalues --    0.42119   0.43484   0.44136   0.45736   0.45982
 Alpha virt. eigenvalues --    0.46956   0.48552   0.49574   0.50233   0.50596
 Alpha virt. eigenvalues --    0.51525   0.51856   0.53526   0.54165   0.54425
 Alpha virt. eigenvalues --    0.54700   0.55462   0.55731   0.55835   0.56452
 Alpha virt. eigenvalues --    0.57771   0.58139   0.58556   0.59214   0.60308
 Alpha virt. eigenvalues --    0.60552   0.61100   0.61586   0.62104   0.62709
 Alpha virt. eigenvalues --    0.63712   0.64719   0.64954   0.66005   0.66557
 Alpha virt. eigenvalues --    0.67690   0.68186   0.68807   0.70109   0.70414
 Alpha virt. eigenvalues --    0.71049   0.72863   0.73467   0.73853   0.75372
 Alpha virt. eigenvalues --    0.75566   0.76457   0.77062   0.77553   0.77842
 Alpha virt. eigenvalues --    0.78247   0.79254   0.79760   0.79881   0.81108
 Alpha virt. eigenvalues --    0.81535   0.82548   0.83280   0.83955   0.84872
 Alpha virt. eigenvalues --    0.85698   0.85939   0.87124   0.87248   0.88404
 Alpha virt. eigenvalues --    0.88460   0.89344   0.89667   0.89829   0.90733
 Alpha virt. eigenvalues --    0.91171   0.91721   0.92832   0.93722   0.94367
 Alpha virt. eigenvalues --    0.95434   0.95569   0.97324   0.98744   0.99312
 Alpha virt. eigenvalues --    0.99847   1.01209   1.02849   1.03576   1.04752
 Alpha virt. eigenvalues --    1.05759   1.06748   1.08040   1.08542   1.09635
 Alpha virt. eigenvalues --    1.10233   1.11400   1.13196   1.13604   1.14402
 Alpha virt. eigenvalues --    1.15324   1.17107   1.18344   1.20285   1.20633
 Alpha virt. eigenvalues --    1.21607   1.22702   1.23936   1.24222   1.26558
 Alpha virt. eigenvalues --    1.27345   1.29758   1.30250   1.32271   1.34124
 Alpha virt. eigenvalues --    1.37311   1.40082   1.40257   1.41564   1.42728
 Alpha virt. eigenvalues --    1.43618   1.45022   1.46462   1.47274   1.49370
 Alpha virt. eigenvalues --    1.49824   1.50473   1.51641   1.51870   1.52335
 Alpha virt. eigenvalues --    1.53715   1.54193   1.55432   1.56136   1.56450
 Alpha virt. eigenvalues --    1.56793   1.58486   1.59726   1.60388   1.60516
 Alpha virt. eigenvalues --    1.62131   1.63279   1.64919   1.66027   1.67547
 Alpha virt. eigenvalues --    1.68614   1.69176   1.70468   1.71322   1.74151
 Alpha virt. eigenvalues --    1.76825   1.77079   1.79017   1.79377   1.81041
 Alpha virt. eigenvalues --    1.82959   1.85921   1.88146   1.89704   1.90607
 Alpha virt. eigenvalues --    1.91367   1.94484   1.95007   1.97393   2.00539
 Alpha virt. eigenvalues --    2.00826   2.05448   2.07036   2.08348   2.08472
 Alpha virt. eigenvalues --    2.10895   2.13937   2.18607   2.20233   2.24595
 Alpha virt. eigenvalues --    2.27646   2.30686   2.37025   2.37401   2.38002
 Alpha virt. eigenvalues --    2.38279   2.39370   2.39930   2.40471   2.42150
 Alpha virt. eigenvalues --    2.42560   2.43754   2.45058   2.51016   2.54996
 Alpha virt. eigenvalues --    2.61156   2.64131   2.68330   2.71900   2.73263
 Alpha virt. eigenvalues --    2.76309   2.78780   2.81841   2.94680   2.99730
 Alpha virt. eigenvalues --    3.01875   3.09941   3.11451   3.15939   3.17850
 Alpha virt. eigenvalues --    3.24291   3.27129   3.35293   3.59306   3.74893
          Condensed to atoms (all electrons):
 Mulliken charges:
               1
     1  C    0.620190
     2  C   -0.109395
     3  S    0.374612
     4  S    0.296825
     5  C    1.040118
     6  C    1.130670
     7  C    0.786187
     8  N   -1.083435
     9  S    0.557327
    10  C   -1.129800
    11  N   -0.167982
    12  C   -1.099388
    13  N   -0.180299
    14  C   -0.852678
    15  N   -0.182951
 Sum of Mulliken charges =  -0.00000
 Mulliken charges with hydrogens summed into heavy atoms:
               1
     1  C    0.620190
     2  C   -0.109395
     3  S    0.374612
     4  S    0.296825
     5  C    1.040118
     6  C    1.130670
     7  C    0.786187
     8  N   -1.083435
     9  S    0.557327
    10  C   -1.129800
    11  N   -0.167982
    12  C   -1.099388
    13  N   -0.180299
    14  C   -0.852678
    15  N   -0.182951
 Electronic spatial extent (au):  <R**2>=          60025.7131
 Charge=             -0.0000 electrons
 Dipole moment (field-independent basis, Debye):
    X=              0.5667    Y=              4.6495    Z=              0.1258  Tot=              4.6856

 Test job not archived.
 1\1\GINC-CHIMERA-NODE56\SP\RM05\Gen\C8N4S3\CONNORNM\19-Jan-2019\0\\#T 
 M05/Gen test Massage SCF=(fermi,maxcyc=60)\\M05 opt\\0,1\C,0,0.0402266
 8,0.69824557,11.98997679\C,0,0.44737626,1.1915965,10.71849704\S,0,-1.1
 4685478,-0.57121257,12.25041923\S,0,-0.16077422,0.57589284,9.17394198\
 C,0,-0.86584621,-1.57421785,10.81545\C,0,-0.47611867,-1.11615931,9.596
 45908\C,0,0.66587182,1.41688678,12.98868906\N,0,1.30113217,2.18593796,
 10.70281481\S,0,1.6637406,2.63511614,12.26411907\C,0,-1.13558504,-2.95
 595493,11.03711019\N,0,-1.39074771,-4.06800904,11.25941785\C,0,-0.3237
 0594,-2.00484788,8.49149531\N,0,-0.21523999,-2.68744275,7.55702995\C,0
 ,0.53918523,1.26688323,14.3910506\N,0,0.44031918,1.16401424,15.5446273
 8\\Version=AS64L-G09RevD.01\HF=-1724.7614777\RMSD=5.184e-09\Dipole=0.2
 229426,1.8292526,0.0495072\Quadrupole=10.6573043,-3.450486,-7.2068182,
 -2.0603219,6.1512593,33.6614986\PG=C01 [X(C8N4S3)]\\@


 SUPPORT THE RIGHT TO ARM BEARS!
 (ADD A CLAWS TO THE BILL OF RIGHTS)
 Job cpu time:       0 days  1 hours 38 minutes 25.2 seconds.
 File lengths (MBytes):  RWF=     58 Int=      0 D2E=      0 Chk=      6 Scr=      1
 Normal termination of Gaussian 09 at Sat Jan 19 10:42:44 2019.
