 Entering Gaussian System, Link 0=/data/szalewicgrp/connornm/opt/Gaussian/g09-M05-par/g09/g09
 AtFile(1): blind-aug.gbs
 Initial command:
 /data/szalewicgrp/connornm/opt/Gaussian/g09-M05-par/g09/l1.exe "/scratch/local/Gau-25715.inp" -scrdir="/scratch/local/"
 Entering Link 1 = /data/szalewicgrp/connornm/opt/Gaussian/g09-M05-par/g09/l1.exe PID=     25716.
  
 Copyright (c) 1988,1990,1992,1993,1995,1998,2003,2009,2013,
            Gaussian, Inc.  All Rights Reserved.
  
 This is part of the Gaussian(R) 09 program.  It is based on
 the Gaussian(R) 03 system (copyright 2003, Gaussian, Inc.),
 the Gaussian(R) 98 system (copyright 1998, Gaussian, Inc.),
 the Gaussian(R) 94 system (copyright 1995, Gaussian, Inc.),
 the Gaussian 92(TM) system (copyright 1992, Gaussian, Inc.),
 the Gaussian 90(TM) system (copyright 1990, Gaussian, Inc.),
 the Gaussian 88(TM) system (copyright 1988, Gaussian, Inc.),
 the Gaussian 86(TM) system (copyright 1986, Carnegie Mellon
 University), and the Gaussian 82(TM) system (copyright 1983,
 Carnegie Mellon University). Gaussian is a federally registered
 trademark of Gaussian, Inc.
  
 This software contains proprietary and confidential information,
 including trade secrets, belonging to Gaussian, Inc.
  
 This software is provided under written license and may be
 used, copied, transmitted, or stored only in accord with that
 written license.
  
 The following legend is applicable only to US Government
 contracts under FAR:
  
                    RESTRICTED RIGHTS LEGEND
  
 Use, reproduction and disclosure by the US Government is
 subject to restrictions as set forth in subparagraphs (a)
 and (c) of the Commercial Computer Software - Restricted
 Rights clause in FAR 52.227-19.
  
 Gaussian, Inc.
 340 Quinnipiac St., Bldg. 40, Wallingford CT 06492
  
  
 ---------------------------------------------------------------
 Warning -- This program may not be used in any manner that
 competes with the business of Gaussian, Inc. or will provide
 assistance to any competitor of Gaussian, Inc.  The licensee
 of this program is prohibited from giving any competitor of
 Gaussian, Inc. access to this program.  By using this program,
 the user acknowledges that Gaussian, Inc. is engaged in the
 business of creating and licensing software in the field of
 computational chemistry and represents and warrants to the
 licensee that it is not a competitor of Gaussian, Inc. and that
 it will not use this program in any manner prohibited above.
 ---------------------------------------------------------------
  

 Cite this work as:
 Gaussian 09, Revision D.01,
 M. J. Frisch, G. W. Trucks, H. B. Schlegel, G. E. Scuseria, 
 M. A. Robb, J. R. Cheeseman, G. Scalmani, V. Barone, B. Mennucci, 
 G. A. Petersson, H. Nakatsuji, M. Caricato, X. Li, H. P. Hratchian, 
 A. F. Izmaylov, J. Bloino, G. Zheng, J. L. Sonnenberg, M. Hada, 
 M. Ehara, K. Toyota, R. Fukuda, J. Hasegawa, M. Ishida, T. Nakajima, 
 Y. Honda, O. Kitao, H. Nakai, T. Vreven, J. A. Montgomery, Jr., 
 J. E. Peralta, F. Ogliaro, M. Bearpark, J. J. Heyd, E. Brothers, 
 K. N. Kudin, V. N. Staroverov, T. Keith, R. Kobayashi, J. Normand, 
 K. Raghavachari, A. Rendell, J. C. Burant, S. S. Iyengar, J. Tomasi, 
 M. Cossi, N. Rega, J. M. Millam, M. Klene, J. E. Knox, J. B. Cross, 
 V. Bakken, C. Adamo, J. Jaramillo, R. Gomperts, R. E. Stratmann, 
 O. Yazyev, A. J. Austin, R. Cammi, C. Pomelli, J. W. Ochterski, 
 R. L. Martin, K. Morokuma, V. G. Zakrzewski, G. A. Voth, 
 P. Salvador, J. J. Dannenberg, S. Dapprich, A. D. Daniels, 
 O. Farkas, J. B. Foresman, J. V. Ortiz, J. Cioslowski, 
 and D. J. Fox, Gaussian, Inc., Wallingford CT, 2013.
 
 ******************************************
 Gaussian 09:  AS64L-G09RevD.01 24-Apr-2013
                19-Jan-2019 
 ******************************************
 %Chk=BLIND01484_mA
 %Mem=1GB
 %NProcShared=48
 Will use up to   48 processors via shared memory.
 ---------------------------------------------
 #T M05/Gen test Massage SCF=(fermi,maxcyc=60)
 ---------------------------------------------
 -------
 M05 opt
 -------
 Symbolic Z-matrix:
 Charge =  0 Multiplicity = 1
 6                    -0.09013  -0.54576  -0.8574 
 6                    -0.62092  -1.19511   0.29258 
 16                   -0.04124   1.19334  -1.10569 
 16                   -1.29691  -0.34339   1.68978 
 6                     0.17275   1.75111   0.56381 
 6                    -0.32759   1.1402    1.6702 
 6                     0.31487  -1.4907   -1.77846 
 7                    -0.63531  -2.5057    0.29208 
 16                   -0.0219   -3.07022  -1.14874 
 6                     0.90585   2.96971   0.65692 
 7                     1.48742   3.9759    0.68029 
 6                    -0.1371    1.69936   2.96827 
 7                    -0.03148   2.13384   4.04112 
 6                     0.88605  -1.28339  -3.0575 
 7                     1.34727  -1.1318   -4.11362 
 
                    Distance matrix (angstroms):
                    1          2          3          4          5
     1  C    0.000000
     2  C    1.423315   0.000000
     3  S    1.757418   2.827694   0.000000
     4  S    2.825849   1.770477   3.428253   0.000000
     5  C    2.713774   3.063280   1.773167   2.795470   0.000000
     6  C    3.047557   2.727187   2.791121   1.772288   1.359281
     7  C    1.380327   2.291783   2.789903   3.992857   4.001979
     8  N    2.336642   1.310672   3.998700   2.658358   4.341342
     9  S    2.542129   2.439721   4.263822   4.137445   5.120151
    10  C    3.955208   4.450782   2.675676   4.110426   1.425163
    11  N    5.029770   5.597745   3.642685   5.237162   2.586817
    12  C    4.436049   3.971317   4.106384   2.674416   2.424897
    13  N    5.583831   5.047859   5.232040   3.642352   3.504263
    14  C    2.517432   3.674472   3.286888   5.309014   4.778168
    15  N    3.607292   4.826214   4.047461   6.425950   5.618639
                    6          7          8          9         10
     6  C    0.000000
     7  C    4.384939   0.000000
     8  N    3.909794   2.494036   0.000000
     9  S    5.076167   1.733444   1.664607   0.000000
    10  C    2.428007   5.116215   5.699860   6.371958   0.000000
    11  N    3.509330   6.107712   6.831389   7.434461   1.162408
    12  C    1.426163   5.736923   5.009263   6.301738   2.836178
    13  N    2.587713   6.864751   5.995430   7.349618   3.609722
    14  C    5.449573   1.416040   3.876636   2.767765   5.646781
    15  N    6.435818   2.578302   5.022796   3.797715   6.306769
                   11         12         13         14         15
    11  N    0.000000
    12  C    3.613393   0.000000
    13  N    4.122555   1.162293   0.000000
    14  C    6.480188   6.800997   7.931563   0.000000
    15  N    7.006418   7.769948   8.891861   1.162367   0.000000
 Symmetry turned off by external request.
 Framework group  C1[X(C8N4S3)]
 Deg. of freedom    39
 Rotational constants (GHZ):      0.7722167      0.3388923      0.2463240
   357 basis functions,   759 primitive gaussians,   387 cartesian basis functions
    62 alpha electrons       62 beta electrons
       nuclear repulsion energy      1166.1400396076 Hartrees.
 IMHF & INEx in M05                  599485                  400514
 NAtoms=   15 NActive=   15 NUniq=   15 SFac= 1.00D+00 NAtFMM=   60 NAOKFM=F Big=F
 PrsmSu:  requested number of processors reduced to:  34 ShMem   1 Linda.
 ExpMin= 3.99D-02 ExpMax= 1.11D+05 ExpMxC= 1.07D+03 IAcc=3 IRadAn=         5 AccDes= 0.00D+00
 Harris functional with IExCor= 1009 and IRadAn=       5 diagonalized for initial guess.
 HarFok:  IExCor= 1009 AccDes= 0.00D+00 IRadAn=         5 IDoV= 1 UseB2=F ITyADJ=14
 ICtDFT=  3500011 ScaDFX=  1.000000  1.000000  1.000000  1.000000
 FoFCou: FMM=F IPFlag=           0 FMFlag=      100000 FMFlg1=           0
         NFxFlg=           0 DoJE=T BraDBF=F KetDBF=T FulRan=T
         wScrn=  0.000000 ICntrl=     500 IOpCl=  0 I1Cent=   200000004 NGrid=           0
         NMat0=    1 NMatS0=      1 NMatT0=    0 NMatD0=    1 NMtDS0=    0 NMtDT0=    0
 Symmetry not used in FoFCou.
 SCF Done:  E(RM05) =  -1724.76147126     A.U. after   17 cycles
            NFock= 17  Conv=0.52D-08     -V/T= 2.0061

 **********************************************************************

            Population analysis using the SCF density.

 **********************************************************************

 Alpha  occ. eigenvalues --  -90.56430 -90.53635 -90.53182 -15.08621 -15.05417
 Alpha  occ. eigenvalues --  -15.04969 -15.04934 -10.89945 -10.89826 -10.89736
 Alpha  occ. eigenvalues --  -10.88752 -10.87414 -10.84946 -10.84332 -10.84310
 Alpha  occ. eigenvalues --   -8.57525  -8.55035  -8.54609  -6.40063  -6.39712
 Alpha  occ. eigenvalues --   -6.39400  -6.37596  -6.37282  -6.37163  -6.36853
 Alpha  occ. eigenvalues --   -6.36821  -6.36392  -1.20533  -1.12895  -1.12139
 Alpha  occ. eigenvalues --   -1.11337  -1.07643  -1.03801  -0.98824  -0.97396
 Alpha  occ. eigenvalues --   -0.88003  -0.84555  -0.82236  -0.73686  -0.71296
 Alpha  occ. eigenvalues --   -0.67838  -0.64612  -0.59530  -0.57258  -0.55386
 Alpha  occ. eigenvalues --   -0.53384  -0.52648  -0.52243  -0.51890  -0.50883
 Alpha  occ. eigenvalues --   -0.50387  -0.49356  -0.48215  -0.46805  -0.46075
 Alpha  occ. eigenvalues --   -0.45933  -0.45296  -0.43720  -0.43113  -0.39488
 Alpha  occ. eigenvalues --   -0.37627  -0.33119
 Alpha virt. eigenvalues --   -0.09329  -0.08268  -0.02099  -0.01262  -0.00504
 Alpha virt. eigenvalues --   -0.00361   0.00154   0.01255   0.02021   0.02229
 Alpha virt. eigenvalues --    0.02394   0.02956   0.03187   0.04003   0.04277
 Alpha virt. eigenvalues --    0.04487   0.05427   0.06005   0.06300   0.07067
 Alpha virt. eigenvalues --    0.07272   0.07526   0.07707   0.08290   0.08493
 Alpha virt. eigenvalues --    0.09374   0.10094   0.10393   0.10523   0.10811
 Alpha virt. eigenvalues --    0.11288   0.11392   0.11977   0.12529   0.13227
 Alpha virt. eigenvalues --    0.13486   0.13935   0.14456   0.15076   0.15194
 Alpha virt. eigenvalues --    0.15902   0.16274   0.16680   0.16812   0.17188
 Alpha virt. eigenvalues --    0.17359   0.17844   0.18612   0.19049   0.19563
 Alpha virt. eigenvalues --    0.19867   0.20240   0.20686   0.20940   0.21267
 Alpha virt. eigenvalues --    0.21884   0.22204   0.22583   0.22822   0.23616
 Alpha virt. eigenvalues --    0.23748   0.24116   0.24368   0.24701   0.25260
 Alpha virt. eigenvalues --    0.25693   0.25853   0.26217   0.26624   0.26745
 Alpha virt. eigenvalues --    0.27072   0.28334   0.29194   0.29662   0.30367
 Alpha virt. eigenvalues --    0.30714   0.32419   0.33455   0.34153   0.34715
 Alpha virt. eigenvalues --    0.34951   0.35470   0.36120   0.36936   0.37594
 Alpha virt. eigenvalues --    0.38150   0.39580   0.40728   0.41169   0.42049
 Alpha virt. eigenvalues --    0.42116   0.43485   0.44134   0.45738   0.45982
 Alpha virt. eigenvalues --    0.46960   0.48553   0.49573   0.50237   0.50597
 Alpha virt. eigenvalues --    0.51526   0.51854   0.53530   0.54168   0.54421
 Alpha virt. eigenvalues --    0.54699   0.55467   0.55733   0.55834   0.56450
 Alpha virt. eigenvalues --    0.57774   0.58141   0.58556   0.59216   0.60311
 Alpha virt. eigenvalues --    0.60552   0.61104   0.61585   0.62108   0.62710
 Alpha virt. eigenvalues --    0.63719   0.64715   0.64953   0.66008   0.66558
 Alpha virt. eigenvalues --    0.67688   0.68191   0.68807   0.70108   0.70415
 Alpha virt. eigenvalues --    0.71045   0.72862   0.73468   0.73855   0.75373
 Alpha virt. eigenvalues --    0.75561   0.76458   0.77061   0.77551   0.77847
 Alpha virt. eigenvalues --    0.78244   0.79256   0.79759   0.79879   0.81108
 Alpha virt. eigenvalues --    0.81537   0.82549   0.83278   0.83958   0.84870
 Alpha virt. eigenvalues --    0.85701   0.85941   0.87124   0.87249   0.88404
 Alpha virt. eigenvalues --    0.88458   0.89346   0.89666   0.89830   0.90731
 Alpha virt. eigenvalues --    0.91172   0.91720   0.92828   0.93720   0.94369
 Alpha virt. eigenvalues --    0.95432   0.95561   0.97324   0.98743   0.99309
 Alpha virt. eigenvalues --    0.99844   1.01204   1.02847   1.03575   1.04747
 Alpha virt. eigenvalues --    1.05757   1.06746   1.08039   1.08543   1.09635
 Alpha virt. eigenvalues --    1.10235   1.11402   1.13194   1.13606   1.14404
 Alpha virt. eigenvalues --    1.15322   1.17099   1.18345   1.20284   1.20631
 Alpha virt. eigenvalues --    1.21609   1.22701   1.23937   1.24220   1.26556
 Alpha virt. eigenvalues --    1.27345   1.29754   1.30248   1.32272   1.34125
 Alpha virt. eigenvalues --    1.37312   1.40081   1.40257   1.41566   1.42729
 Alpha virt. eigenvalues --    1.43616   1.45023   1.46464   1.47273   1.49372
 Alpha virt. eigenvalues --    1.49823   1.50474   1.51640   1.51867   1.52332
 Alpha virt. eigenvalues --    1.53713   1.54194   1.55433   1.56135   1.56448
 Alpha virt. eigenvalues --    1.56788   1.58488   1.59722   1.60391   1.60518
 Alpha virt. eigenvalues --    1.62128   1.63281   1.64922   1.66028   1.67545
 Alpha virt. eigenvalues --    1.68613   1.69174   1.70470   1.71326   1.74152
 Alpha virt. eigenvalues --    1.76826   1.77075   1.79015   1.79375   1.81041
 Alpha virt. eigenvalues --    1.82959   1.85920   1.88148   1.89702   1.90609
 Alpha virt. eigenvalues --    1.91368   1.94486   1.95006   1.97393   2.00540
 Alpha virt. eigenvalues --    2.00829   2.05448   2.07035   2.08348   2.08475
 Alpha virt. eigenvalues --    2.10898   2.13937   2.18604   2.20235   2.24594
 Alpha virt. eigenvalues --    2.27647   2.30687   2.37026   2.37402   2.38002
 Alpha virt. eigenvalues --    2.38279   2.39370   2.39931   2.40470   2.42150
 Alpha virt. eigenvalues --    2.42560   2.43755   2.45057   2.51017   2.54996
 Alpha virt. eigenvalues --    2.61160   2.64127   2.68330   2.71897   2.73264
 Alpha virt. eigenvalues --    2.76309   2.78780   2.81840   2.94680   2.99730
 Alpha virt. eigenvalues --    3.01877   3.09941   3.11449   3.15939   3.17850
 Alpha virt. eigenvalues --    3.24293   3.27131   3.35293   3.59307   3.74893
          Condensed to atoms (all electrons):
 Mulliken charges:
               1
     1  C    0.620228
     2  C   -0.108190
     3  S    0.373406
     4  S    0.296334
     5  C    1.040836
     6  C    1.131087
     7  C    0.787259
     8  N   -1.083474
     9  S    0.557409
    10  C   -1.130263
    11  N   -0.167977
    12  C   -1.100129
    13  N   -0.180481
    14  C   -0.853110
    15  N   -0.182935
 Sum of Mulliken charges =  -0.00000
 Mulliken charges with hydrogens summed into heavy atoms:
               1
     1  C    0.620228
     2  C   -0.108190
     3  S    0.373406
     4  S    0.296334
     5  C    1.040836
     6  C    1.131087
     7  C    0.787259
     8  N   -1.083474
     9  S    0.557409
    10  C   -1.130263
    11  N   -0.167977
    12  C   -1.100129
    13  N   -0.180481
    14  C   -0.853110
    15  N   -0.182935
 Electronic spatial extent (au):  <R**2>=           4013.7191
 Charge=             -0.0000 electrons
 Dipole moment (field-independent basis, Debye):
    X=             -2.3478    Y=             -3.8690    Z=             -1.2121  Tot=              4.6851

 Test job not archived.
 1\1\GINC-CHIMERA-NODE21\SP\RM05\Gen\C8N4S3\CONNORNM\19-Jan-2019\0\\#T 
 M05/Gen test Massage SCF=(fermi,maxcyc=60)\\M05 opt\\0,1\C,0,-0.090129
 26,-0.5457589,-0.85739888\C,0,-0.62091539,-1.19510536,0.29257586\S,0,-
 0.04123941,1.19334417,-1.10568684\S,0,-1.29691168,-0.34338699,1.689784
 93\C,0,0.17274683,1.75111489,0.56381123\C,0,-0.32759331,1.14020377,1.6
 7019787\C,0,0.31487004,-1.49070498,-1.77846115\N,0,-0.63531486,-2.5056
 9776,0.29208342\S,0,-0.02190254,-3.07021663,-1.14873602\C,0,0.90585169
 ,2.96971157,0.65691899\N,0,1.48742107,3.97590436,0.68028881\C,0,-0.137
 10378,1.69936018,2.96827328\N,0,-0.03148436,2.13383947,4.04111922\C,0,
 0.88605019,-1.28338539,-3.05749996\N,0,1.34726985,-1.13180218,-4.11362
 252\\Version=AS64L-G09RevD.01\HF=-1724.7614713\RMSD=5.154e-09\Dipole=-
 0.9236932,-1.5221744,-0.4768757\Quadrupole=8.0291095,1.3842564,-9.4133
 659,-4.9309962,2.8460548,-5.3743158\PG=C01 [X(C8N4S3)]\\@


 The cat could very well be man's best friend
 but would never stoop to admitting it.
                               -- Doug Larson
 Job cpu time:       0 days  1 hours 37 minutes 27.5 seconds.
 File lengths (MBytes):  RWF=     58 Int=      0 D2E=      0 Chk=      6 Scr=      1
 Normal termination of Gaussian 09 at Sat Jan 19 11:14:33 2019.
