 Entering Gaussian System, Link 0=/data/szalewicgrp/connornm/opt/Gaussian/g09-M05-par/g09/g09
 AtFile(1): blind-aug.gbs
 Initial command:
 /data/szalewicgrp/connornm/opt/Gaussian/g09-M05-par/g09/l1.exe "/scratch/local/Gau-9131.inp" -scrdir="/scratch/local/"
 Entering Link 1 = /data/szalewicgrp/connornm/opt/Gaussian/g09-M05-par/g09/l1.exe PID=      9132.
  
 Copyright (c) 1988,1990,1992,1993,1995,1998,2003,2009,2013,
            Gaussian, Inc.  All Rights Reserved.
  
 This is part of the Gaussian(R) 09 program.  It is based on
 the Gaussian(R) 03 system (copyright 2003, Gaussian, Inc.),
 the Gaussian(R) 98 system (copyright 1998, Gaussian, Inc.),
 the Gaussian(R) 94 system (copyright 1995, Gaussian, Inc.),
 the Gaussian 92(TM) system (copyright 1992, Gaussian, Inc.),
 the Gaussian 90(TM) system (copyright 1990, Gaussian, Inc.),
 the Gaussian 88(TM) system (copyright 1988, Gaussian, Inc.),
 the Gaussian 86(TM) system (copyright 1986, Carnegie Mellon
 University), and the Gaussian 82(TM) system (copyright 1983,
 Carnegie Mellon University). Gaussian is a federally registered
 trademark of Gaussian, Inc.
  
 This software contains proprietary and confidential information,
 including trade secrets, belonging to Gaussian, Inc.
  
 This software is provided under written license and may be
 used, copied, transmitted, or stored only in accord with that
 written license.
  
 The following legend is applicable only to US Government
 contracts under FAR:
  
                    RESTRICTED RIGHTS LEGEND
  
 Use, reproduction and disclosure by the US Government is
 subject to restrictions as set forth in subparagraphs (a)
 and (c) of the Commercial Computer Software - Restricted
 Rights clause in FAR 52.227-19.
  
 Gaussian, Inc.
 340 Quinnipiac St., Bldg. 40, Wallingford CT 06492
  
  
 ---------------------------------------------------------------
 Warning -- This program may not be used in any manner that
 competes with the business of Gaussian, Inc. or will provide
 assistance to any competitor of Gaussian, Inc.  The licensee
 of this program is prohibited from giving any competitor of
 Gaussian, Inc. access to this program.  By using this program,
 the user acknowledges that Gaussian, Inc. is engaged in the
 business of creating and licensing software in the field of
 computational chemistry and represents and warrants to the
 licensee that it is not a competitor of Gaussian, Inc. and that
 it will not use this program in any manner prohibited above.
 ---------------------------------------------------------------
  

 Cite this work as:
 Gaussian 09, Revision D.01,
 M. J. Frisch, G. W. Trucks, H. B. Schlegel, G. E. Scuseria, 
 M. A. Robb, J. R. Cheeseman, G. Scalmani, V. Barone, B. Mennucci, 
 G. A. Petersson, H. Nakatsuji, M. Caricato, X. Li, H. P. Hratchian, 
 A. F. Izmaylov, J. Bloino, G. Zheng, J. L. Sonnenberg, M. Hada, 
 M. Ehara, K. Toyota, R. Fukuda, J. Hasegawa, M. Ishida, T. Nakajima, 
 Y. Honda, O. Kitao, H. Nakai, T. Vreven, J. A. Montgomery, Jr., 
 J. E. Peralta, F. Ogliaro, M. Bearpark, J. J. Heyd, E. Brothers, 
 K. N. Kudin, V. N. Staroverov, T. Keith, R. Kobayashi, J. Normand, 
 K. Raghavachari, A. Rendell, J. C. Burant, S. S. Iyengar, J. Tomasi, 
 M. Cossi, N. Rega, J. M. Millam, M. Klene, J. E. Knox, J. B. Cross, 
 V. Bakken, C. Adamo, J. Jaramillo, R. Gomperts, R. E. Stratmann, 
 O. Yazyev, A. J. Austin, R. Cammi, C. Pomelli, J. W. Ochterski, 
 R. L. Martin, K. Morokuma, V. G. Zakrzewski, G. A. Voth, 
 P. Salvador, J. J. Dannenberg, S. Dapprich, A. D. Daniels, 
 O. Farkas, J. B. Foresman, J. V. Ortiz, J. Cioslowski, 
 and D. J. Fox, Gaussian, Inc., Wallingford CT, 2013.
 
 ******************************************
 Gaussian 09:  AS64L-G09RevD.01 24-Apr-2013
                19-Jan-2019 
 ******************************************
 %Chk=BLIND00310
 %Mem=1GB
 %NProcShared=48
 Will use up to   48 processors via shared memory.
 ---------------------------------------------
 #T M05/Gen test Massage SCF=(fermi,maxcyc=60)
 ---------------------------------------------
 -------
 M05 opt
 -------
 Symbolic Z-matrix:
 Charge =  0 Multiplicity = 1
 6                    -0.43126   0.91845  -0.10764 
 6                    -0.41777   0.14886  -1.30488 
 16                   -0.52437   0.2589    1.51866 
 16                   -0.46098  -1.62057  -1.34779 
 6                     0.35994  -1.26243   1.30032 
 6                     0.38202  -2.00612   0.16274 
 6                    -0.43231   2.26293  -0.42014 
 7                    -0.40599   0.80187  -2.44124 
 16                   -0.44337   2.4394   -2.14454 
 6                     1.04096  -1.68763   2.47782 
 7                     1.55927  -2.00492   3.46872 
 6                     1.08907  -3.24342   0.10693 
 7                     1.62694  -4.27052   0.02518 
 6                    -0.45486   3.3705    0.46188 
 7                    -0.48255   4.29118   1.17088 
 6                     0.50488  -0.80202   6.27628 
 6                     1.34215   0.306     5.96464 
 16                   -1.1714   -0.69055   6.79218 
 16                    0.81343   1.99489   6.01645 
 6                    -1.6878    0.75197   5.89966 
 6                    -0.89862   1.81587   5.59475 
 6                     1.22981  -1.97279   6.18094 
 7                     2.5894    0.05042   5.65335 
 16                    2.86335  -1.58886   5.74623 
 6                    -3.06903   0.72846   5.54934 
 7                    -4.20461   0.67437   5.307 
 6                    -1.42668   2.95113   4.91191 
 7                    -1.82063   3.90841   4.38337 
 6                     0.79285  -3.299     6.41627 
 7                     0.4539   -4.39307   6.61433 
 
                    Distance matrix (angstroms):
                    1          2          3          4          5
     1  C    0.000000
     2  C    1.423315   0.000000
     3  S    1.757418   2.827694   0.000000
     4  S    2.825849   1.770477   3.428253   0.000000
     5  C    2.713774   3.063280   1.773167   2.795470   0.000000
     6  C    3.047557   2.727187   2.791121   1.772288   1.359281
     7  C    1.380327   2.291783   2.789903   3.992857   4.001979
     8  N    2.336642   1.310672   3.998700   2.658358   4.341342
     9  S    2.542129   2.439721   4.263822   4.137445   5.120151
    10  C    3.955208   4.450782   2.675676   4.110426   1.425163
    11  N    5.029770   5.597745   3.642685   5.237162   2.586817
    12  C    4.436049   3.971317   4.106384   2.674416   2.424897
    13  N    5.583831   5.047859   5.232040   3.642352   3.504263
    14  C    2.517432   3.674472   3.286888   5.309014   4.778168
    15  N    3.607292   4.826214   4.047461   6.425950   5.618639
    16  C    6.677630   7.696066   4.981950   7.728470   4.999312
    17  C    6.355523   7.481178   4.822124   7.773968   5.018029
    18  S    7.123499   8.175270   5.397237   8.223669   5.729974
    19  S    6.341332   7.650205   5.003351   8.302270   5.749584
    20  C    6.139566   7.340445   4.559590   7.723955   5.422634
    21  C    5.791463   7.114425   4.379352   7.758827   5.431574
    22  C    7.117903   7.953201   5.458424   7.724280   5.008161
    23  N    6.562532   7.580883   5.180220   7.817478   5.063886
    24  S    7.169991   7.968916   5.723913   7.834364   5.112700
    25  C    6.244628   7.371936   4.789800   7.738872   5.811681
    26  N    6.604252   7.637625   5.297960   7.972936   6.374939
    27  C    5.506228   6.893408   4.424524   7.811321   5.830066
    28  N    5.571304   6.961208   4.817237   8.078636   6.402941
    29  C    7.864270   8.542226   6.195189   8.041757   5.523404
    30  N    8.612814   9.170762   6.968766   8.480510   6.168337
                    6          7          8          9         10
     6  C    0.000000
     7  C    4.384939   0.000000
     8  N    3.909794   2.494036   0.000000
     9  S    5.076167   1.733444   1.664607   0.000000
    10  C    2.428007   5.116215   5.699860   6.371958   0.000000
    11  N    3.509330   6.107712   6.831389   7.434461   1.162408
    12  C    1.426163   5.736923   5.009263   6.301738   2.836178
    13  N    2.587713   6.864751   5.995430   7.349618   3.609722
    14  C    5.449573   1.416040   3.876636   2.767765   5.646781
    15  N    6.435818   2.578302   5.022796   3.797715   6.306769
    16  C    6.232194   7.423896   8.910509   9.072825   3.937001
    17  C    6.319003   6.909684   8.600040   8.573118   4.027807
    18  S    6.934934   7.828596   9.384520   9.496930   4.949999
    19  S    7.103530   6.561510   8.628022   8.269157   5.112211
    20  C    6.693535   6.618092   8.438962   8.312955   5.010670
    21  C    6.764193   6.049481   8.114674   7.777705   5.074618
    22  C    6.077706   8.017365   9.204152   9.569770   3.718879
    23  N    6.264877   7.135347   8.663680   8.701264   3.937320
    24  S    6.124249   7.982589   9.134481   9.456505   3.743441
    25  C    6.957230   6.703852   8.422973   8.307663   5.671314
    26  N    7.394972   7.039458   8.630237   8.531577   6.410885
    27  C    7.099315   5.467463   7.728510   7.142989   5.790697
    28  N    7.592561   5.263911   7.630665   6.831435   6.567762
    29  C    6.398981   8.897903   9.834117  10.380031   4.262570
    30  N    6.879362   9.724787  10.475213  11.144754   4.977423
                   11         12         13         14         15
    11  N    0.000000
    12  C    3.613393   0.000000
    13  N    4.122555   1.162293   0.000000
    14  C    6.480188   6.800997   7.931563   0.000000
    15  N    7.006418   7.769948   8.891861   1.162367   0.000000
    16  C    3.231267   6.660523   7.236414   7.220674   7.278785
    17  C    3.408392   6.853850   7.503521   6.549865   6.495484
    18  S    4.497728   7.504632   8.151025   7.555013   7.542621
    19  S    4.800597   7.901796   8.707038   5.861234   5.516525
    20  C    4.904424   7.565042   8.409660   6.160052   6.028263
    21  C    5.015937   7.724211   8.628013   5.381462   5.086345
    22  C    2.732345   6.207085   6.582598   8.006018   8.201832
    23  N    3.171470   6.622930   7.160527   6.873260   6.892995
    24  S    2.657214   6.139005   6.438198   7.970569   8.167230
    25  C    5.763810   7.917411   8.806714   6.300516   6.209169
    26  N    6.616665   8.391240   9.292825   6.693649   6.636453
    27  C    5.963313   8.233422   9.238879   4.574173   4.084412
    28  N    6.872242   8.826262   9.888092   4.187214   3.501010
    29  C    3.309099   6.316539   6.518096   9.027388   9.314054
    30  N    4.101215   6.638626   6.693866   9.947431  10.291949
                   16         17         18         19         20
    16  C    0.000000
    17  C    1.423315   0.000000
    18  S    1.757418   2.827694   0.000000
    19  S    2.825849   1.770477   3.428253   0.000000
    20  C    2.713774   3.063280   1.773167   2.795470   0.000000
    21  C    3.047557   2.727187   2.791121   1.772288   1.359281
    22  C    1.380327   2.291783   2.789903   3.992857   4.001979
    23  N    2.336642   1.310672   3.998700   2.658358   4.341342
    24  S    2.542129   2.439721   4.263822   4.137445   5.120151
    25  C    3.955208   4.450782   2.675676   4.110426   1.425163
    26  N    5.029770   5.597745   3.642685   5.237162   2.586817
    27  C    4.436049   3.971317   4.106384   2.674416   2.424897
    28  N    5.583831   5.047859   5.232040   3.642352   3.504263
    29  C    2.517432   3.674472   3.286888   5.309014   4.778168
    30  N    3.607292   4.826214   4.047461   6.425950   5.618639
                   21         22         23         24         25
    21  C    0.000000
    22  C    4.384939   0.000000
    23  N    3.909794   2.494036   0.000000
    24  S    5.076167   1.733444   1.664607   0.000000
    25  C    2.428007   5.116215   5.699860   6.371958   0.000000
    26  N    3.509330   6.107712   6.831389   7.434461   1.162408
    27  C    1.426163   5.736923   5.009263   6.301738   2.836178
    28  N    2.587713   6.864751   5.995430   7.349618   3.609722
    29  C    5.449573   1.416040   3.876636   2.767765   5.646781
    30  N    6.435818   2.578302   5.022796   3.797715   6.306769
                   26         27         28         29         30
    26  N    0.000000
    27  C    3.613393   0.000000
    28  N    4.122555   1.162293   0.000000
    29  C    6.480188   6.800997   7.931563   0.000000
    30  N    7.006418   7.769948   8.891861   1.162367   0.000000
 Symmetry turned off by external request.
 Framework group  C1[X(C16N8S6)]
 Deg. of freedom    84
 Rotational constants (GHZ):      0.1511656      0.0851620      0.0652988
   714 basis functions,  1518 primitive gaussians,   774 cartesian basis functions
   124 alpha electrons      124 beta electrons
       nuclear repulsion energy      3579.1022696534 Hartrees.
 IMHF & INEx in M05                  599485                  400514
 NAtoms=   30 NActive=   30 NUniq=   30 SFac= 1.00D+00 NAtFMM=   60 NAOKFM=F Big=F
 PrsmSu:  requested number of processors reduced to:  25 ShMem   1 Linda.
 ExpMin= 3.99D-02 ExpMax= 1.11D+05 ExpMxC= 1.07D+03 IAcc=3 IRadAn=         5 AccDes= 0.00D+00
 Harris functional with IExCor= 1009 and IRadAn=       5 diagonalized for initial guess.
 HarFok:  IExCor= 1009 AccDes= 0.00D+00 IRadAn=         5 IDoV= 1 UseB2=F ITyADJ=14
 ICtDFT=  3500011 ScaDFX=  1.000000  1.000000  1.000000  1.000000
 FoFCou: FMM=F IPFlag=           0 FMFlag=      100000 FMFlg1=           0
         NFxFlg=           0 DoJE=T BraDBF=F KetDBF=T FulRan=T
         wScrn=  0.000000 ICntrl=     500 IOpCl=  0 I1Cent=   200000004 NGrid=           0
         NMat0=    1 NMatS0=      1 NMatT0=    0 NMatD0=    1 NMtDS0=    0 NMtDT0=    0
 Symmetry not used in FoFCou.
 SCF Done:  E(RM05) =  -3448.33915263     A.U. after   17 cycles
            NFock= 17  Conv=0.86D-08     -V/T= 2.0058

 **********************************************************************

            Population analysis using the SCF density.

 **********************************************************************

 Alpha  occ. eigenvalues --  -90.55027 -90.52941 -90.52607 -90.52084 -90.51113
 Alpha  occ. eigenvalues --  -90.50639 -15.08146 -15.06552 -15.05019 -15.04976
 Alpha  occ. eigenvalues --  -15.04591 -15.03781 -15.03629 -15.03394 -10.90134
 Alpha  occ. eigenvalues --  -10.89858 -10.89398 -10.88630 -10.88474 -10.88371
 Alpha  occ. eigenvalues --  -10.87647 -10.87042 -10.86436 -10.85370 -10.85355
 Alpha  occ. eigenvalues --  -10.84356 -10.84035 -10.83311 -10.83059 -10.83021
 Alpha  occ. eigenvalues --   -8.57627  -8.55559  -8.55515  -8.55012  -8.54013
 Alpha  occ. eigenvalues --   -8.53566  -6.40348  -6.39997  -6.39689  -6.38274
 Alpha  occ. eigenvalues --   -6.38263  -6.37950  -6.37921  -6.37750  -6.37621
 Alpha  occ. eigenvalues --   -6.37490  -6.37439  -6.36981  -6.36760  -6.36446
 Alpha  occ. eigenvalues --   -6.36305  -6.35995  -6.35990  -6.35540  -1.20886
 Alpha  occ. eigenvalues --   -1.19187  -1.14164  -1.12507  -1.12419  -1.12039
 Alpha  occ. eigenvalues --   -1.10962  -1.10885  -1.08530  -1.06971  -1.04199
 Alpha  occ. eigenvalues --   -1.02618  -0.99441  -0.97995  -0.97794  -0.96429
 Alpha  occ. eigenvalues --   -0.88605  -0.86982  -0.85223  -0.83670  -0.82677
 Alpha  occ. eigenvalues --   -0.81093  -0.74659  -0.73089  -0.71785  -0.70175
 Alpha  occ. eigenvalues --   -0.68411  -0.66750  -0.65162  -0.63596  -0.60169
 Alpha  occ. eigenvalues --   -0.60043  -0.57701  -0.56416  -0.56259  -0.55797
 Alpha  occ. eigenvalues --   -0.54058  -0.53036  -0.52685  -0.52464  -0.52400
 Alpha  occ. eigenvalues --   -0.51703  -0.51637  -0.51570  -0.51251  -0.50709
 Alpha  occ. eigenvalues --   -0.50191  -0.49687  -0.49466  -0.49202  -0.48295
 Alpha  occ. eigenvalues --   -0.47782  -0.47689  -0.47184  -0.46776  -0.46038
 Alpha  occ. eigenvalues --   -0.45761  -0.45589  -0.45400  -0.44257  -0.44089
 Alpha  occ. eigenvalues --   -0.43597  -0.42614  -0.42039  -0.40286  -0.38151
 Alpha  occ. eigenvalues --   -0.37876  -0.36157  -0.33768  -0.32064
 Alpha virt. eigenvalues --   -0.10445  -0.08815  -0.08582  -0.06940  -0.02941
 Alpha virt. eigenvalues --   -0.01612  -0.01546  -0.01172  -0.00628  -0.00555
 Alpha virt. eigenvalues --   -0.00094   0.00383   0.00581   0.00886   0.01185
 Alpha virt. eigenvalues --    0.01689   0.01961   0.02074   0.02263   0.02490
 Alpha virt. eigenvalues --    0.03001   0.03100   0.03278   0.03719   0.03898
 Alpha virt. eigenvalues --    0.04144   0.04157   0.04711   0.04885   0.05237
 Alpha virt. eigenvalues --    0.05677   0.05780   0.05901   0.06090   0.06590
 Alpha virt. eigenvalues --    0.06681   0.06812   0.07209   0.07539   0.07706
 Alpha virt. eigenvalues --    0.07831   0.08073   0.08427   0.08730   0.08875
 Alpha virt. eigenvalues --    0.09017   0.09368   0.09584   0.10093   0.10284
 Alpha virt. eigenvalues --    0.10527   0.10680   0.10898   0.11097   0.11269
 Alpha virt. eigenvalues --    0.11658   0.11933   0.11996   0.12351   0.12552
 Alpha virt. eigenvalues --    0.12872   0.13023   0.13179   0.13251   0.13612
 Alpha virt. eigenvalues --    0.14007   0.14288   0.14588   0.14655   0.14754
 Alpha virt. eigenvalues --    0.15193   0.15218   0.15673   0.15822   0.15954
 Alpha virt. eigenvalues --    0.16331   0.16551   0.16685   0.16837   0.17122
 Alpha virt. eigenvalues --    0.17310   0.17416   0.17583   0.17833   0.18119
 Alpha virt. eigenvalues --    0.18269   0.18705   0.18889   0.19219   0.19347
 Alpha virt. eigenvalues --    0.19537   0.19794   0.20213   0.20464   0.20480
 Alpha virt. eigenvalues --    0.20603   0.20841   0.20953   0.21395   0.21611
 Alpha virt. eigenvalues --    0.21842   0.22157   0.22297   0.22507   0.22905
 Alpha virt. eigenvalues --    0.23046   0.23221   0.23258   0.23367   0.23694
 Alpha virt. eigenvalues --    0.23893   0.24099   0.24344   0.24588   0.24842
 Alpha virt. eigenvalues --    0.24982   0.25217   0.25342   0.25769   0.25967
 Alpha virt. eigenvalues --    0.26030   0.26324   0.26389   0.26591   0.26815
 Alpha virt. eigenvalues --    0.26987   0.27065   0.27560   0.27615   0.27987
 Alpha virt. eigenvalues --    0.28555   0.28669   0.28912   0.29047   0.29151
 Alpha virt. eigenvalues --    0.29610   0.29921   0.30262   0.30529   0.30783
 Alpha virt. eigenvalues --    0.30921   0.31112   0.31420   0.31695   0.32028
 Alpha virt. eigenvalues --    0.32316   0.32776   0.32913   0.33120   0.33675
 Alpha virt. eigenvalues --    0.34063   0.34402   0.34530   0.35089   0.35239
 Alpha virt. eigenvalues --    0.35633   0.35788   0.36291   0.36402   0.36670
 Alpha virt. eigenvalues --    0.37023   0.37390   0.37504   0.37915   0.38368
 Alpha virt. eigenvalues --    0.38908   0.39452   0.39850   0.40012   0.40670
 Alpha virt. eigenvalues --    0.41196   0.41466   0.41572   0.41934   0.42604
 Alpha virt. eigenvalues --    0.43493   0.43583   0.44212   0.44363   0.44540
 Alpha virt. eigenvalues --    0.45088   0.45634   0.45918   0.46115   0.47013
 Alpha virt. eigenvalues --    0.47169   0.47566   0.47896   0.48816   0.48919
 Alpha virt. eigenvalues --    0.49488   0.49972   0.50546   0.50958   0.51613
 Alpha virt. eigenvalues --    0.52007   0.52425   0.52776   0.53071   0.53322
 Alpha virt. eigenvalues --    0.53356   0.53994   0.54377   0.54497   0.54734
 Alpha virt. eigenvalues --    0.55202   0.55684   0.55692   0.56242   0.56421
 Alpha virt. eigenvalues --    0.56858   0.57195   0.57329   0.57887   0.57907
 Alpha virt. eigenvalues --    0.58098   0.58570   0.59069   0.59288   0.59603
 Alpha virt. eigenvalues --    0.59921   0.60321   0.60552   0.61177   0.61424
 Alpha virt. eigenvalues --    0.61544   0.61701   0.62311   0.62455   0.62914
 Alpha virt. eigenvalues --    0.63167   0.63256   0.63746   0.64314   0.64494
 Alpha virt. eigenvalues --    0.64661   0.64970   0.65174   0.65901   0.66092
 Alpha virt. eigenvalues --    0.66556   0.66862   0.67011   0.67230   0.67700
 Alpha virt. eigenvalues --    0.68070   0.68104   0.68466   0.68844   0.69259
 Alpha virt. eigenvalues --    0.70067   0.70413   0.70556   0.71338   0.71762
 Alpha virt. eigenvalues --    0.72183   0.72224   0.73190   0.73505   0.73984
 Alpha virt. eigenvalues --    0.74132   0.74595   0.75202   0.75416   0.75691
 Alpha virt. eigenvalues --    0.75979   0.76457   0.76833   0.76924   0.77774
 Alpha virt. eigenvalues --    0.77974   0.78356   0.78532   0.78788   0.79100
 Alpha virt. eigenvalues --    0.79521   0.79666   0.80115   0.80460   0.80768
 Alpha virt. eigenvalues --    0.81069   0.81160   0.82001   0.82438   0.82557
 Alpha virt. eigenvalues --    0.83042   0.83081   0.83442   0.83934   0.84240
 Alpha virt. eigenvalues --    0.84722   0.85128   0.85564   0.86137   0.86258
 Alpha virt. eigenvalues --    0.86422   0.86605   0.86867   0.87275   0.87788
 Alpha virt. eigenvalues --    0.88126   0.88387   0.88759   0.89139   0.89297
 Alpha virt. eigenvalues --    0.89482   0.90070   0.90413   0.90706   0.91056
 Alpha virt. eigenvalues --    0.91512   0.91957   0.92376   0.92577   0.92907
 Alpha virt. eigenvalues --    0.93117   0.93307   0.93979   0.94317   0.94650
 Alpha virt. eigenvalues --    0.94991   0.95356   0.95738   0.96252   0.96472
 Alpha virt. eigenvalues --    0.96815   0.97049   0.97581   0.98171   0.98840
 Alpha virt. eigenvalues --    0.99396   0.99532   0.99896   1.00448   1.01011
 Alpha virt. eigenvalues --    1.01262   1.01555   1.02026   1.02374   1.02483
 Alpha virt. eigenvalues --    1.03724   1.03839   1.04407   1.04725   1.05541
 Alpha virt. eigenvalues --    1.06217   1.06905   1.07527   1.07762   1.08128
 Alpha virt. eigenvalues --    1.08981   1.09461   1.09675   1.10039   1.10668
 Alpha virt. eigenvalues --    1.10885   1.11507   1.12139   1.12512   1.12838
 Alpha virt. eigenvalues --    1.13267   1.13938   1.14420   1.14837   1.15358
 Alpha virt. eigenvalues --    1.16286   1.16687   1.16881   1.17668   1.18077
 Alpha virt. eigenvalues --    1.18459   1.18854   1.20076   1.20962   1.21662
 Alpha virt. eigenvalues --    1.22314   1.22692   1.23146   1.23530   1.23780
 Alpha virt. eigenvalues --    1.24437   1.25149   1.25706   1.25995   1.26554
 Alpha virt. eigenvalues --    1.27579   1.27716   1.28100   1.29319   1.30140
 Alpha virt. eigenvalues --    1.30664   1.31880   1.32215   1.32675   1.34097
 Alpha virt. eigenvalues --    1.34861   1.34977   1.35579   1.37519   1.38971
 Alpha virt. eigenvalues --    1.39084   1.40788   1.41267   1.41778   1.42280
 Alpha virt. eigenvalues --    1.43057   1.43681   1.44253   1.44820   1.45296
 Alpha virt. eigenvalues --    1.45990   1.46908   1.48017   1.48668   1.48735
 Alpha virt. eigenvalues --    1.49085   1.50049   1.51017   1.51600   1.51733
 Alpha virt. eigenvalues --    1.51961   1.52589   1.52748   1.52969   1.53858
 Alpha virt. eigenvalues --    1.54018   1.54430   1.55028   1.55475   1.56070
 Alpha virt. eigenvalues --    1.56218   1.56517   1.56931   1.57917   1.58571
 Alpha virt. eigenvalues --    1.58985   1.59598   1.60041   1.60284   1.60628
 Alpha virt. eigenvalues --    1.60839   1.61698   1.62042   1.62835   1.63527
 Alpha virt. eigenvalues --    1.63860   1.64149   1.64875   1.65089   1.65834
 Alpha virt. eigenvalues --    1.66179   1.66446   1.67424   1.67994   1.68132
 Alpha virt. eigenvalues --    1.69052   1.69076   1.70000   1.70586   1.70953
 Alpha virt. eigenvalues --    1.71344   1.71725   1.72291   1.72979   1.74882
 Alpha virt. eigenvalues --    1.75456   1.76070   1.76861   1.77547   1.77909
 Alpha virt. eigenvalues --    1.78753   1.79756   1.79811   1.80719   1.81156
 Alpha virt. eigenvalues --    1.81868   1.82343   1.83102   1.84408   1.84607
 Alpha virt. eigenvalues --    1.85474   1.87205   1.88725   1.90055   1.90957
 Alpha virt. eigenvalues --    1.91811   1.92188   1.92351   1.93346   1.94500
 Alpha virt. eigenvalues --    1.94594   1.96036   1.96322   1.97256   1.98276
 Alpha virt. eigenvalues --    2.00133   2.00919   2.01423   2.02310   2.03502
 Alpha virt. eigenvalues --    2.04678   2.06373   2.07675   2.07789   2.08385
 Alpha virt. eigenvalues --    2.09401   2.10259   2.11721   2.11829   2.13740
 Alpha virt. eigenvalues --    2.14898   2.16815   2.18836   2.20589   2.21287
 Alpha virt. eigenvalues --    2.21919   2.24074   2.27087   2.28945   2.30345
 Alpha virt. eigenvalues --    2.30891   2.32386   2.34089   2.35730   2.37572
 Alpha virt. eigenvalues --    2.38346   2.38615   2.39263   2.39494   2.39789
 Alpha virt. eigenvalues --    2.40276   2.40828   2.41595   2.41783   2.42051
 Alpha virt. eigenvalues --    2.42554   2.43103   2.44281   2.44725   2.46047
 Alpha virt. eigenvalues --    2.47173   2.47840   2.49146   2.50789   2.51762
 Alpha virt. eigenvalues --    2.53306   2.55165   2.56139   2.61048   2.64106
 Alpha virt. eigenvalues --    2.64443   2.66259   2.68058   2.70222   2.70740
 Alpha virt. eigenvalues --    2.71911   2.72998   2.74344   2.75452   2.77658
 Alpha virt. eigenvalues --    2.77920   2.79185   2.81452   2.83551   2.84384
 Alpha virt. eigenvalues --    2.89186   2.95739   2.96403   3.00966   3.01586
 Alpha virt. eigenvalues --    3.02751   3.09777   3.11675   3.14251   3.14528
 Alpha virt. eigenvalues --    3.17835   3.18129   3.19355   3.23987   3.26540
 Alpha virt. eigenvalues --    3.27366   3.30974   3.32438   3.38813   3.41014
 Alpha virt. eigenvalues --    3.44698   3.65084   3.69320   3.83246   3.87175
          Condensed to atoms (all electrons):
 Mulliken charges:
               1
     1  C    0.214988
     2  C    0.121229
     3  S    0.552272
     4  S    0.287822
     5  C    1.126425
     6  C    1.150251
     7  C    0.962782
     8  N   -1.114363
     9  S    0.556518
    10  C   -1.581134
    11  N    0.195924
    12  C   -1.194250
    13  N   -0.128680
    14  C   -1.044186
    15  N   -0.084296
    16  C    0.562588
    17  C    0.075976
    18  S    0.317902
    19  S    0.176127
    20  C    0.974813
    21  C    1.360715
    22  C    0.999788
    23  N   -1.126875
    24  S    0.652924
    25  C   -1.233372
    26  N   -0.131368
    27  C   -1.252878
    28  N   -0.088156
    29  C   -1.177222
    30  N   -0.132263
 Sum of Mulliken charges =  -0.00000
 Mulliken charges with hydrogens summed into heavy atoms:
               1
     1  C    0.214988
     2  C    0.121229
     3  S    0.552272
     4  S    0.287822
     5  C    1.126425
     6  C    1.150251
     7  C    0.962782
     8  N   -1.114363
     9  S    0.556518
    10  C   -1.581134
    11  N    0.195924
    12  C   -1.194250
    13  N   -0.128680
    14  C   -1.044186
    15  N   -0.084296
    16  C    0.562588
    17  C    0.075976
    18  S    0.317902
    19  S    0.176127
    20  C    0.974813
    21  C    1.360715
    22  C    0.999788
    23  N   -1.126875
    24  S    0.652924
    25  C   -1.233372
    26  N   -0.131368
    27  C   -1.252878
    28  N   -0.088156
    29  C   -1.177222
    30  N   -0.132263
 Electronic spatial extent (au):  <R**2>=          23421.5759
 Charge=             -0.0000 electrons
 Dipole moment (field-independent basis, Debye):
    X=              2.1332    Y=              1.3097    Z=             -2.9597  Tot=              3.8763

 Test job not archived.
 1\1\GINC-CHIMERA-NODE27\SP\RM05\Gen\C16N8S6\CONNORNM\19-Jan-2019\0\\#T
  M05/Gen test Massage SCF=(fermi,maxcyc=60)\\M05 opt\\0,1\C,0,-0.43125
 514,0.91844516,-0.10764014\C,0,-0.41777417,0.14886337,-1.3048823\S,0,-
 0.52436684,0.25890067,1.5186587\S,0,-0.46098387,-1.62056607,-1.3477860
 1\C,0,0.35993981,-1.26243192,1.30032185\C,0,0.38201685,-2.00612075,0.1
 6274391\C,0,-0.4323053,2.26293239,-0.42014005\N,0,-0.4059873,0.8018728
 3,-2.441236\S,0,-0.44336595,2.43939922,-2.14454247\C,0,1.04096494,-1.6
 876322,2.47781884\N,0,1.55926989,-2.00491852,3.46871863\C,0,1.08906577
 ,-3.2434196,0.10692886\N,0,1.62694174,-4.27051906,0.02518375\C,0,-0.45
 48557,3.37049547,0.46188259\N,0,-0.48255,4.29117568,1.1708797\C,0,0.50
 4883,-0.80201654,6.27627658\C,0,1.34214643,0.3060005,5.96464404\S,0,-1
 .17140191,-0.69054702,6.79218361\S,0,0.81343072,1.99489481,6.01645199\
 C,0,-1.68779906,0.75197075,5.89965991\C,0,-0.89862046,1.81586513,5.594
 7502\C,0,1.22980653,-1.97278531,6.18093732\N,0,2.58939846,0.05042473,5
 .6533509\S,0,2.86334717,-1.58885633,5.74623044\C,0,-3.06903441,0.72845
 516,5.54933781\N,0,-4.20461406,0.67437412,5.30700099\C,0,-1.4266825,2.
 95112753,4.9119093\N,0,-1.82062586,3.90840714,4.38337309\C,0,0.7928483
 8,-3.29900287,6.41627323\N,0,0.45390337,-4.39307187,6.61432681\\Versio
 n=AS64L-G09RevD.01\HF=-3448.3391526\RMSD=8.645e-09\Dipole=0.8392706,0.
 5152835,-1.1644365\Quadrupole=3.2101823,-18.2486838,15.0385015,8.54528
 99,13.2764649,0.708035\PG=C01 [X(C16N8S6)]\\@


 TWO ROADS DIVERGED IN A WOOD, AND I--
 I TOOK THE ONE LESS TRAVELED BY,
 AND THAT HAS MADE ALL THE DIFFERENCE.

                       -- ROBERT FROST
 Job cpu time:       0 days 11 hours 56 minutes 17.6 seconds.
 File lengths (MBytes):  RWF=    225 Int=      0 D2E=      0 Chk=     19 Scr=      1
 Normal termination of Gaussian 09 at Sat Jan 19 14:03:38 2019.
