 Entering Gaussian System, Link 0=/data/szalewicgrp/connornm/opt/Gaussian/g09-M05-par/g09/g09
 AtFile(1): blind-aug.gbs
 Initial command:
 /data/szalewicgrp/connornm/opt/Gaussian/g09-M05-par/g09/l1.exe "/scratch/local/Gau-27175.inp" -scrdir="/scratch/local/"
 Entering Link 1 = /data/szalewicgrp/connornm/opt/Gaussian/g09-M05-par/g09/l1.exe PID=     27176.
  
 Copyright (c) 1988,1990,1992,1993,1995,1998,2003,2009,2013,
            Gaussian, Inc.  All Rights Reserved.
  
 This is part of the Gaussian(R) 09 program.  It is based on
 the Gaussian(R) 03 system (copyright 2003, Gaussian, Inc.),
 the Gaussian(R) 98 system (copyright 1998, Gaussian, Inc.),
 the Gaussian(R) 94 system (copyright 1995, Gaussian, Inc.),
 the Gaussian 92(TM) system (copyright 1992, Gaussian, Inc.),
 the Gaussian 90(TM) system (copyright 1990, Gaussian, Inc.),
 the Gaussian 88(TM) system (copyright 1988, Gaussian, Inc.),
 the Gaussian 86(TM) system (copyright 1986, Carnegie Mellon
 University), and the Gaussian 82(TM) system (copyright 1983,
 Carnegie Mellon University). Gaussian is a federally registered
 trademark of Gaussian, Inc.
  
 This software contains proprietary and confidential information,
 including trade secrets, belonging to Gaussian, Inc.
  
 This software is provided under written license and may be
 used, copied, transmitted, or stored only in accord with that
 written license.
  
 The following legend is applicable only to US Government
 contracts under FAR:
  
                    RESTRICTED RIGHTS LEGEND
  
 Use, reproduction and disclosure by the US Government is
 subject to restrictions as set forth in subparagraphs (a)
 and (c) of the Commercial Computer Software - Restricted
 Rights clause in FAR 52.227-19.
  
 Gaussian, Inc.
 340 Quinnipiac St., Bldg. 40, Wallingford CT 06492
  
  
 ---------------------------------------------------------------
 Warning -- This program may not be used in any manner that
 competes with the business of Gaussian, Inc. or will provide
 assistance to any competitor of Gaussian, Inc.  The licensee
 of this program is prohibited from giving any competitor of
 Gaussian, Inc. access to this program.  By using this program,
 the user acknowledges that Gaussian, Inc. is engaged in the
 business of creating and licensing software in the field of
 computational chemistry and represents and warrants to the
 licensee that it is not a competitor of Gaussian, Inc. and that
 it will not use this program in any manner prohibited above.
 ---------------------------------------------------------------
  

 Cite this work as:
 Gaussian 09, Revision D.01,
 M. J. Frisch, G. W. Trucks, H. B. Schlegel, G. E. Scuseria, 
 M. A. Robb, J. R. Cheeseman, G. Scalmani, V. Barone, B. Mennucci, 
 G. A. Petersson, H. Nakatsuji, M. Caricato, X. Li, H. P. Hratchian, 
 A. F. Izmaylov, J. Bloino, G. Zheng, J. L. Sonnenberg, M. Hada, 
 M. Ehara, K. Toyota, R. Fukuda, J. Hasegawa, M. Ishida, T. Nakajima, 
 Y. Honda, O. Kitao, H. Nakai, T. Vreven, J. A. Montgomery, Jr., 
 J. E. Peralta, F. Ogliaro, M. Bearpark, J. J. Heyd, E. Brothers, 
 K. N. Kudin, V. N. Staroverov, T. Keith, R. Kobayashi, J. Normand, 
 K. Raghavachari, A. Rendell, J. C. Burant, S. S. Iyengar, J. Tomasi, 
 M. Cossi, N. Rega, J. M. Millam, M. Klene, J. E. Knox, J. B. Cross, 
 V. Bakken, C. Adamo, J. Jaramillo, R. Gomperts, R. E. Stratmann, 
 O. Yazyev, A. J. Austin, R. Cammi, C. Pomelli, J. W. Ochterski, 
 R. L. Martin, K. Morokuma, V. G. Zakrzewski, G. A. Voth, 
 P. Salvador, J. J. Dannenberg, S. Dapprich, A. D. Daniels, 
 O. Farkas, J. B. Foresman, J. V. Ortiz, J. Cioslowski, 
 and D. J. Fox, Gaussian, Inc., Wallingford CT, 2013.
 
 ******************************************
 Gaussian 09:  AS64L-G09RevD.01 24-Apr-2013
                19-Jan-2019 
 ******************************************
 %Chk=BLIND01416_mA
 %Mem=1GB
 %NProcShared=48
 Will use up to   48 processors via shared memory.
 ---------------------------------------------
 #T M05/Gen test Massage SCF=(fermi,maxcyc=60)
 ---------------------------------------------
 -------
 M05 opt
 -------
 Symbolic Z-matrix:
 Charge =  0 Multiplicity = 1
 6                    -0.60905  -0.79788  -0.18316 
 6                     0.09615  -0.88761   1.04991 
 16                   -1.12257   0.6982   -0.94904 
 16                    0.60399   0.5127    2.00689 
 6                     0.18805   1.78258  -0.44852 
 6                     0.86991   1.70724   0.72494 
 6                    -0.89092  -2.06594  -0.64995 
 7                     0.35105  -2.08705   1.51276 
 16                   -0.28589  -3.22969   0.48339 
 6                     0.45343   2.81384  -1.39572 
 7                     0.61685   3.64974  -2.18676 
 6                     1.87811   2.66147   1.05193 
 7                     2.68594   3.43325   1.37237 
 6                    -1.58305  -2.43509  -1.82886 
 7                    -2.15684  -2.75618  -2.78738 
 
                    Distance matrix (angstroms):
                    1          2          3          4          5
     1  C    0.000000
     2  C    1.423315   0.000000
     3  S    1.757418   2.827694   0.000000
     4  S    2.825849   1.770477   3.428253   0.000000
     5  C    2.713774   3.063280   1.773167   2.795470   0.000000
     6  C    3.047557   2.727187   2.791121   1.772288   1.359281
     7  C    1.380327   2.291783   2.789903   3.992857   4.001979
     8  N    2.336642   1.310672   3.998700   2.658358   4.341342
     9  S    2.542129   2.439721   4.263822   4.137445   5.120151
    10  C    3.955208   4.450782   2.675676   4.110426   1.425163
    11  N    5.029770   5.597745   3.642685   5.237162   2.586817
    12  C    4.436049   3.971317   4.106384   2.674416   2.424897
    13  N    5.583831   5.047859   5.232040   3.642352   3.504263
    14  C    2.517432   3.674472   3.286888   5.309014   4.778168
    15  N    3.607292   4.826214   4.047461   6.425950   5.618639
                    6          7          8          9         10
     6  C    0.000000
     7  C    4.384939   0.000000
     8  N    3.909794   2.494036   0.000000
     9  S    5.076167   1.733444   1.664607   0.000000
    10  C    2.428007   5.116215   5.699860   6.371958   0.000000
    11  N    3.509330   6.107712   6.831389   7.434461   1.162408
    12  C    1.426163   5.736923   5.009263   6.301738   2.836178
    13  N    2.587713   6.864751   5.995430   7.349618   3.609722
    14  C    5.449573   1.416040   3.876636   2.767765   5.646781
    15  N    6.435818   2.578302   5.022796   3.797715   6.306769
                   11         12         13         14         15
    11  N    0.000000
    12  C    3.613393   0.000000
    13  N    4.122555   1.162293   0.000000
    14  C    6.480188   6.800997   7.931563   0.000000
    15  N    7.006418   7.769948   8.891861   1.162367   0.000000
 Symmetry turned off by external request.
 Framework group  C1[X(C8N4S3)]
 Deg. of freedom    39
 Rotational constants (GHZ):      0.7722167      0.3388923      0.2463240
   357 basis functions,   759 primitive gaussians,   387 cartesian basis functions
    62 alpha electrons       62 beta electrons
       nuclear repulsion energy      1166.1400392648 Hartrees.
 IMHF & INEx in M05                  599485                  400514
 NAtoms=   15 NActive=   15 NUniq=   15 SFac= 1.00D+00 NAtFMM=   60 NAOKFM=F Big=F
 PrsmSu:  requested number of processors reduced to:  34 ShMem   1 Linda.
 ExpMin= 3.99D-02 ExpMax= 1.11D+05 ExpMxC= 1.07D+03 IAcc=3 IRadAn=         5 AccDes= 0.00D+00
 Harris functional with IExCor= 1009 and IRadAn=       5 diagonalized for initial guess.
 HarFok:  IExCor= 1009 AccDes= 0.00D+00 IRadAn=         5 IDoV= 1 UseB2=F ITyADJ=14
 ICtDFT=  3500011 ScaDFX=  1.000000  1.000000  1.000000  1.000000
 FoFCou: FMM=F IPFlag=           0 FMFlag=      100000 FMFlg1=           0
         NFxFlg=           0 DoJE=T BraDBF=F KetDBF=T FulRan=T
         wScrn=  0.000000 ICntrl=     500 IOpCl=  0 I1Cent=   200000004 NGrid=           0
         NMat0=    1 NMatS0=      1 NMatT0=    0 NMatD0=    1 NMtDS0=    0 NMtDT0=    0
 Symmetry not used in FoFCou.
 SCF Done:  E(RM05) =  -1724.76148135     A.U. after   17 cycles
            NFock= 17  Conv=0.51D-08     -V/T= 2.0061

 **********************************************************************

            Population analysis using the SCF density.

 **********************************************************************

 Alpha  occ. eigenvalues --  -90.56431 -90.53634 -90.53184 -15.08621 -15.05416
 Alpha  occ. eigenvalues --  -15.04969 -15.04934 -10.89945 -10.89826 -10.89736
 Alpha  occ. eigenvalues --  -10.88752 -10.87413 -10.84946 -10.84332 -10.84310
 Alpha  occ. eigenvalues --   -8.57526  -8.55034  -8.54611  -6.40063  -6.39713
 Alpha  occ. eigenvalues --   -6.39401  -6.37596  -6.37281  -6.37165  -6.36855
 Alpha  occ. eigenvalues --   -6.36820  -6.36394  -1.20533  -1.12895  -1.12138
 Alpha  occ. eigenvalues --   -1.11337  -1.07643  -1.03801  -0.98824  -0.97396
 Alpha  occ. eigenvalues --   -0.88002  -0.84555  -0.82236  -0.73687  -0.71296
 Alpha  occ. eigenvalues --   -0.67838  -0.64612  -0.59530  -0.57258  -0.55386
 Alpha  occ. eigenvalues --   -0.53385  -0.52647  -0.52242  -0.51890  -0.50883
 Alpha  occ. eigenvalues --   -0.50387  -0.49356  -0.48215  -0.46804  -0.46074
 Alpha  occ. eigenvalues --   -0.45933  -0.45296  -0.43720  -0.43113  -0.39488
 Alpha  occ. eigenvalues --   -0.37627  -0.33120
 Alpha virt. eigenvalues --   -0.09329  -0.08268  -0.02098  -0.01263  -0.00500
 Alpha virt. eigenvalues --   -0.00361   0.00153   0.01255   0.02023   0.02233
 Alpha virt. eigenvalues --    0.02396   0.02957   0.03191   0.04004   0.04277
 Alpha virt. eigenvalues --    0.04488   0.05428   0.06008   0.06305   0.07067
 Alpha virt. eigenvalues --    0.07273   0.07527   0.07707   0.08292   0.08493
 Alpha virt. eigenvalues --    0.09380   0.10093   0.10392   0.10527   0.10813
 Alpha virt. eigenvalues --    0.11288   0.11395   0.11980   0.12528   0.13230
 Alpha virt. eigenvalues --    0.13489   0.13941   0.14455   0.15075   0.15194
 Alpha virt. eigenvalues --    0.15900   0.16274   0.16675   0.16812   0.17190
 Alpha virt. eigenvalues --    0.17357   0.17847   0.18612   0.19060   0.19566
 Alpha virt. eigenvalues --    0.19865   0.20245   0.20684   0.20949   0.21268
 Alpha virt. eigenvalues --    0.21878   0.22207   0.22583   0.22825   0.23616
 Alpha virt. eigenvalues --    0.23746   0.24113   0.24374   0.24707   0.25262
 Alpha virt. eigenvalues --    0.25695   0.25853   0.26227   0.26617   0.26748
 Alpha virt. eigenvalues --    0.27078   0.28335   0.29195   0.29664   0.30368
 Alpha virt. eigenvalues --    0.30713   0.32419   0.33452   0.34155   0.34714
 Alpha virt. eigenvalues --    0.34949   0.35473   0.36122   0.36938   0.37594
 Alpha virt. eigenvalues --    0.38151   0.39578   0.40726   0.41170   0.42051
 Alpha virt. eigenvalues --    0.42122   0.43486   0.44138   0.45736   0.45978
 Alpha virt. eigenvalues --    0.46962   0.48551   0.49572   0.50239   0.50602
 Alpha virt. eigenvalues --    0.51526   0.51860   0.53530   0.54168   0.54422
 Alpha virt. eigenvalues --    0.54701   0.55468   0.55735   0.55836   0.56451
 Alpha virt. eigenvalues --    0.57770   0.58139   0.58555   0.59216   0.60313
 Alpha virt. eigenvalues --    0.60550   0.61104   0.61588   0.62105   0.62713
 Alpha virt. eigenvalues --    0.63716   0.64716   0.64954   0.66007   0.66555
 Alpha virt. eigenvalues --    0.67687   0.68194   0.68807   0.70106   0.70413
 Alpha virt. eigenvalues --    0.71051   0.72860   0.73473   0.73855   0.75370
 Alpha virt. eigenvalues --    0.75566   0.76456   0.77062   0.77554   0.77844
 Alpha virt. eigenvalues --    0.78247   0.79256   0.79762   0.79878   0.81107
 Alpha virt. eigenvalues --    0.81535   0.82547   0.83279   0.83957   0.84872
 Alpha virt. eigenvalues --    0.85698   0.85940   0.87126   0.87250   0.88404
 Alpha virt. eigenvalues --    0.88459   0.89345   0.89667   0.89828   0.90730
 Alpha virt. eigenvalues --    0.91173   0.91723   0.92829   0.93719   0.94367
 Alpha virt. eigenvalues --    0.95433   0.95563   0.97326   0.98743   0.99310
 Alpha virt. eigenvalues --    0.99849   1.01207   1.02849   1.03575   1.04748
 Alpha virt. eigenvalues --    1.05761   1.06744   1.08039   1.08543   1.09635
 Alpha virt. eigenvalues --    1.10237   1.11402   1.13194   1.13606   1.14404
 Alpha virt. eigenvalues --    1.15326   1.17106   1.18344   1.20284   1.20631
 Alpha virt. eigenvalues --    1.21609   1.22701   1.23933   1.24221   1.26557
 Alpha virt. eigenvalues --    1.27343   1.29756   1.30251   1.32271   1.34128
 Alpha virt. eigenvalues --    1.37311   1.40082   1.40258   1.41567   1.42729
 Alpha virt. eigenvalues --    1.43617   1.45024   1.46465   1.47274   1.49370
 Alpha virt. eigenvalues --    1.49822   1.50475   1.51643   1.51868   1.52334
 Alpha virt. eigenvalues --    1.53715   1.54193   1.55432   1.56137   1.56451
 Alpha virt. eigenvalues --    1.56789   1.58488   1.59725   1.60391   1.60516
 Alpha virt. eigenvalues --    1.62130   1.63280   1.64925   1.66028   1.67549
 Alpha virt. eigenvalues --    1.68614   1.69177   1.70470   1.71322   1.74148
 Alpha virt. eigenvalues --    1.76825   1.77075   1.79017   1.79376   1.81040
 Alpha virt. eigenvalues --    1.82957   1.85922   1.88146   1.89704   1.90606
 Alpha virt. eigenvalues --    1.91369   1.94485   1.95007   1.97393   2.00540
 Alpha virt. eigenvalues --    2.00826   2.05448   2.07037   2.08350   2.08473
 Alpha virt. eigenvalues --    2.10899   2.13937   2.18604   2.20231   2.24594
 Alpha virt. eigenvalues --    2.27645   2.30684   2.37027   2.37402   2.38002
 Alpha virt. eigenvalues --    2.38279   2.39369   2.39931   2.40470   2.42151
 Alpha virt. eigenvalues --    2.42559   2.43756   2.45057   2.51018   2.54996
 Alpha virt. eigenvalues --    2.61159   2.64127   2.68329   2.71898   2.73264
 Alpha virt. eigenvalues --    2.76309   2.78780   2.81840   2.94680   2.99731
 Alpha virt. eigenvalues --    3.01875   3.09941   3.11450   3.15939   3.17849
 Alpha virt. eigenvalues --    3.24293   3.27131   3.35295   3.59311   3.74894
          Condensed to atoms (all electrons):
 Mulliken charges:
               1
     1  C    0.619476
     2  C   -0.108462
     3  S    0.374339
     4  S    0.295741
     5  C    1.040076
     6  C    1.132415
     7  C    0.786915
     8  N   -1.083133
     9  S    0.557211
    10  C   -1.130632
    11  N   -0.167895
    12  C   -1.099896
    13  N   -0.180477
    14  C   -0.852702
    15  N   -0.182975
 Sum of Mulliken charges =  -0.00000
 Mulliken charges with hydrogens summed into heavy atoms:
               1
     1  C    0.619476
     2  C   -0.108462
     3  S    0.374339
     4  S    0.295741
     5  C    1.040076
     6  C    1.132415
     7  C    0.786915
     8  N   -1.083133
     9  S    0.557211
    10  C   -1.130632
    11  N   -0.167895
    12  C   -1.099896
    13  N   -0.180477
    14  C   -0.852702
    15  N   -0.182975
 Electronic spatial extent (au):  <R**2>=           4013.7181
 Charge=             -0.0000 electrons
 Dipole moment (field-independent basis, Debye):
    X=             -1.5655    Y=             -3.6041    Z=              2.5511  Tot=              4.6850

 Test job not archived.
 1\1\GINC-CHIMERA-NODE14\SP\RM05\Gen\C8N4S3\CONNORNM\19-Jan-2019\0\\#T 
 M05/Gen test Massage SCF=(fermi,maxcyc=60)\\M05 opt\\0,1\C,0,-0.609052
 03,-0.79788241,-0.18316168\C,0,0.09614705,-0.88761192,1.04991152\S,0,-
 1.12257158,0.69819593,-0.94903629\S,0,0.60399274,0.51270165,2.0068875\
 C,0,0.18804702,1.78258012,-0.44852466\C,0,0.86991101,1.70723575,0.7249
 4404\C,0,-0.89091849,-2.0659388,-0.64994588\N,0,0.35105094,-2.08705276
 ,1.51275675\S,0,-0.28588843,-3.22969174,0.48338739\C,0,0.45343188,2.81
 383577,-1.39571647\N,0,0.61684649,3.64974027,-2.18676157\C,0,1.8781057
 4,2.66146969,1.05193472\N,0,2.68593983,3.43325275,1.37237368\C,0,-1.58
 305468,-2.43509192,-1.82886145\N,0,-2.156844,-2.75617794,-2.78738401\\
 Version=AS64L-G09RevD.01\HF=-1724.7614814\RMSD=5.111e-09\Dipole=-0.615
 9318,-1.4179694,1.0036963\Quadrupole=2.7734412,-2.3186405,-0.4548007,-
 9.7359048,-6.0572735,-0.824231\PG=C01 [X(C8N4S3)]\\@


 This summer one third of the nation will be ill-housed
 ill-nourished and ill-clad. Only they call it a vacation.
 -- Jonas Salk
 Job cpu time:       0 days  1 hours 36 minutes 47.2 seconds.
 File lengths (MBytes):  RWF=     58 Int=      0 D2E=      0 Chk=      6 Scr=      1
 Normal termination of Gaussian 09 at Sat Jan 19 10:42:41 2019.
