 Entering Gaussian System, Link 0=/data/szalewicgrp/connornm/opt/Gaussian/g09-M05-par/g09/g09
 AtFile(1): blind-aug.gbs
 Initial command:
 /data/szalewicgrp/connornm/opt/Gaussian/g09-M05-par/g09/l1.exe "/scratch/local/Gau-25208.inp" -scrdir="/scratch/local/"
 Entering Link 1 = /data/szalewicgrp/connornm/opt/Gaussian/g09-M05-par/g09/l1.exe PID=     25209.
  
 Copyright (c) 1988,1990,1992,1993,1995,1998,2003,2009,2013,
            Gaussian, Inc.  All Rights Reserved.
  
 This is part of the Gaussian(R) 09 program.  It is based on
 the Gaussian(R) 03 system (copyright 2003, Gaussian, Inc.),
 the Gaussian(R) 98 system (copyright 1998, Gaussian, Inc.),
 the Gaussian(R) 94 system (copyright 1995, Gaussian, Inc.),
 the Gaussian 92(TM) system (copyright 1992, Gaussian, Inc.),
 the Gaussian 90(TM) system (copyright 1990, Gaussian, Inc.),
 the Gaussian 88(TM) system (copyright 1988, Gaussian, Inc.),
 the Gaussian 86(TM) system (copyright 1986, Carnegie Mellon
 University), and the Gaussian 82(TM) system (copyright 1983,
 Carnegie Mellon University). Gaussian is a federally registered
 trademark of Gaussian, Inc.
  
 This software contains proprietary and confidential information,
 including trade secrets, belonging to Gaussian, Inc.
  
 This software is provided under written license and may be
 used, copied, transmitted, or stored only in accord with that
 written license.
  
 The following legend is applicable only to US Government
 contracts under FAR:
  
                    RESTRICTED RIGHTS LEGEND
  
 Use, reproduction and disclosure by the US Government is
 subject to restrictions as set forth in subparagraphs (a)
 and (c) of the Commercial Computer Software - Restricted
 Rights clause in FAR 52.227-19.
  
 Gaussian, Inc.
 340 Quinnipiac St., Bldg. 40, Wallingford CT 06492
  
  
 ---------------------------------------------------------------
 Warning -- This program may not be used in any manner that
 competes with the business of Gaussian, Inc. or will provide
 assistance to any competitor of Gaussian, Inc.  The licensee
 of this program is prohibited from giving any competitor of
 Gaussian, Inc. access to this program.  By using this program,
 the user acknowledges that Gaussian, Inc. is engaged in the
 business of creating and licensing software in the field of
 computational chemistry and represents and warrants to the
 licensee that it is not a competitor of Gaussian, Inc. and that
 it will not use this program in any manner prohibited above.
 ---------------------------------------------------------------
  

 Cite this work as:
 Gaussian 09, Revision D.01,
 M. J. Frisch, G. W. Trucks, H. B. Schlegel, G. E. Scuseria, 
 M. A. Robb, J. R. Cheeseman, G. Scalmani, V. Barone, B. Mennucci, 
 G. A. Petersson, H. Nakatsuji, M. Caricato, X. Li, H. P. Hratchian, 
 A. F. Izmaylov, J. Bloino, G. Zheng, J. L. Sonnenberg, M. Hada, 
 M. Ehara, K. Toyota, R. Fukuda, J. Hasegawa, M. Ishida, T. Nakajima, 
 Y. Honda, O. Kitao, H. Nakai, T. Vreven, J. A. Montgomery, Jr., 
 J. E. Peralta, F. Ogliaro, M. Bearpark, J. J. Heyd, E. Brothers, 
 K. N. Kudin, V. N. Staroverov, T. Keith, R. Kobayashi, J. Normand, 
 K. Raghavachari, A. Rendell, J. C. Burant, S. S. Iyengar, J. Tomasi, 
 M. Cossi, N. Rega, J. M. Millam, M. Klene, J. E. Knox, J. B. Cross, 
 V. Bakken, C. Adamo, J. Jaramillo, R. Gomperts, R. E. Stratmann, 
 O. Yazyev, A. J. Austin, R. Cammi, C. Pomelli, J. W. Ochterski, 
 R. L. Martin, K. Morokuma, V. G. Zakrzewski, G. A. Voth, 
 P. Salvador, J. J. Dannenberg, S. Dapprich, A. D. Daniels, 
 O. Farkas, J. B. Foresman, J. V. Ortiz, J. Cioslowski, 
 and D. J. Fox, Gaussian, Inc., Wallingford CT, 2013.
 
 ******************************************
 Gaussian 09:  AS64L-G09RevD.01 24-Apr-2013
                19-Jan-2019 
 ******************************************
 %Chk=BLIND02609_mA
 %Mem=1GB
 %NProcShared=48
 Will use up to   48 processors via shared memory.
 ---------------------------------------------
 #T M05/Gen test Massage SCF=(fermi,maxcyc=60)
 ---------------------------------------------
 -------
 M05 opt
 -------
 Symbolic Z-matrix:
 Charge =  0 Multiplicity = 1
 6                    -0.075    -0.04823  -1.01644 
 6                    -0.33877  -1.28537  -0.36396 
 16                   -0.39538   1.54165  -0.33958 
 16                   -1.01102  -1.423     1.26813 
 6                    -0.1129    1.22184   1.38148 
 6                    -0.35931   0.04547   2.01638 
 6                     0.40371  -0.28742  -2.28882 
 7                    -0.09605  -2.38471  -1.03509 
 16                    0.45416  -1.99908  -2.55807 
 6                     0.37292   2.35928   2.08951 
 7                     0.74504   3.31987   2.628 
 6                    -0.14077  -0.09282   3.41889 
 7                    -0.00523  -0.24188   4.56359 
 6                     0.77928   0.65353  -3.27812 
 7                     1.0831    1.41175  -4.1051 
 
                    Distance matrix (angstroms):
                    1          2          3          4          5
     1  C    0.000000
     2  C    1.423315   0.000000
     3  S    1.757418   2.827694   0.000000
     4  S    2.825849   1.770477   3.428253   0.000000
     5  C    2.713774   3.063280   1.773167   2.795470   0.000000
     6  C    3.047557   2.727187   2.791121   1.772288   1.359281
     7  C    1.380327   2.291783   2.789903   3.992857   4.001979
     8  N    2.336642   1.310672   3.998700   2.658358   4.341342
     9  S    2.542129   2.439721   4.263822   4.137445   5.120151
    10  C    3.955208   4.450782   2.675676   4.110426   1.425163
    11  N    5.029770   5.597745   3.642685   5.237162   2.586817
    12  C    4.436049   3.971317   4.106384   2.674416   2.424897
    13  N    5.583831   5.047859   5.232040   3.642352   3.504263
    14  C    2.517432   3.674472   3.286888   5.309014   4.778168
    15  N    3.607292   4.826214   4.047461   6.425950   5.618639
                    6          7          8          9         10
     6  C    0.000000
     7  C    4.384939   0.000000
     8  N    3.909794   2.494036   0.000000
     9  S    5.076167   1.733444   1.664607   0.000000
    10  C    2.428007   5.116215   5.699860   6.371958   0.000000
    11  N    3.509330   6.107712   6.831389   7.434461   1.162408
    12  C    1.426163   5.736923   5.009263   6.301738   2.836178
    13  N    2.587713   6.864751   5.995430   7.349618   3.609722
    14  C    5.449573   1.416040   3.876636   2.767765   5.646781
    15  N    6.435818   2.578302   5.022796   3.797715   6.306769
                   11         12         13         14         15
    11  N    0.000000
    12  C    3.613393   0.000000
    13  N    4.122555   1.162293   0.000000
    14  C    6.480188   6.800997   7.931563   0.000000
    15  N    7.006418   7.769948   8.891861   1.162367   0.000000
 Symmetry turned off by external request.
 Framework group  C1[X(C8N4S3)]
 Deg. of freedom    39
 Rotational constants (GHZ):      0.7722167      0.3388923      0.2463240
   357 basis functions,   759 primitive gaussians,   387 cartesian basis functions
    62 alpha electrons       62 beta electrons
       nuclear repulsion energy      1166.1400404692 Hartrees.
 IMHF & INEx in M05                  599485                  400514
 NAtoms=   15 NActive=   15 NUniq=   15 SFac= 1.00D+00 NAtFMM=   60 NAOKFM=F Big=F
 PrsmSu:  requested number of processors reduced to:  34 ShMem   1 Linda.
 ExpMin= 3.99D-02 ExpMax= 1.11D+05 ExpMxC= 1.07D+03 IAcc=3 IRadAn=         5 AccDes= 0.00D+00
 Harris functional with IExCor= 1009 and IRadAn=       5 diagonalized for initial guess.
 HarFok:  IExCor= 1009 AccDes= 0.00D+00 IRadAn=         5 IDoV= 1 UseB2=F ITyADJ=14
 ICtDFT=  3500011 ScaDFX=  1.000000  1.000000  1.000000  1.000000
 FoFCou: FMM=F IPFlag=           0 FMFlag=      100000 FMFlg1=           0
         NFxFlg=           0 DoJE=T BraDBF=F KetDBF=T FulRan=T
         wScrn=  0.000000 ICntrl=     500 IOpCl=  0 I1Cent=   200000004 NGrid=           0
         NMat0=    1 NMatS0=      1 NMatT0=    0 NMatD0=    1 NMtDS0=    0 NMtDT0=    0
 Symmetry not used in FoFCou.
 SCF Done:  E(RM05) =  -1724.76148381     A.U. after   17 cycles
            NFock= 17  Conv=0.51D-08     -V/T= 2.0061

 **********************************************************************

            Population analysis using the SCF density.

 **********************************************************************

 Alpha  occ. eigenvalues --  -90.56430 -90.53637 -90.53181 -15.08622 -15.05417
 Alpha  occ. eigenvalues --  -15.04969 -15.04934 -10.89944 -10.89826 -10.89735
 Alpha  occ. eigenvalues --  -10.88752 -10.87414 -10.84947 -10.84332 -10.84310
 Alpha  occ. eigenvalues --   -8.57525  -8.55036  -8.54608  -6.40062  -6.39712
 Alpha  occ. eigenvalues --   -6.39400  -6.37598  -6.37283  -6.37162  -6.36852
 Alpha  occ. eigenvalues --   -6.36822  -6.36391  -1.20533  -1.12895  -1.12139
 Alpha  occ. eigenvalues --   -1.11337  -1.07643  -1.03801  -0.98824  -0.97396
 Alpha  occ. eigenvalues --   -0.88002  -0.84555  -0.82236  -0.73686  -0.71296
 Alpha  occ. eigenvalues --   -0.67838  -0.64612  -0.59530  -0.57258  -0.55386
 Alpha  occ. eigenvalues --   -0.53385  -0.52648  -0.52243  -0.51890  -0.50883
 Alpha  occ. eigenvalues --   -0.50387  -0.49356  -0.48215  -0.46805  -0.46074
 Alpha  occ. eigenvalues --   -0.45933  -0.45296  -0.43720  -0.43113  -0.39488
 Alpha  occ. eigenvalues --   -0.37628  -0.33119
 Alpha virt. eigenvalues --   -0.09329  -0.08269  -0.02098  -0.01262  -0.00502
 Alpha virt. eigenvalues --   -0.00361   0.00154   0.01255   0.02020   0.02231
 Alpha virt. eigenvalues --    0.02394   0.02957   0.03189   0.04002   0.04279
 Alpha virt. eigenvalues --    0.04487   0.05428   0.06006   0.06298   0.07067
 Alpha virt. eigenvalues --    0.07271   0.07528   0.07707   0.08291   0.08492
 Alpha virt. eigenvalues --    0.09377   0.10095   0.10392   0.10521   0.10813
 Alpha virt. eigenvalues --    0.11286   0.11393   0.11979   0.12526   0.13229
 Alpha virt. eigenvalues --    0.13489   0.13938   0.14455   0.15077   0.15191
 Alpha virt. eigenvalues --    0.15904   0.16273   0.16676   0.16812   0.17191
 Alpha virt. eigenvalues --    0.17360   0.17839   0.18613   0.19052   0.19566
 Alpha virt. eigenvalues --    0.19855   0.20239   0.20683   0.20941   0.21266
 Alpha virt. eigenvalues --    0.21877   0.22209   0.22580   0.22823   0.23616
 Alpha virt. eigenvalues --    0.23748   0.24114   0.24373   0.24704   0.25257
 Alpha virt. eigenvalues --    0.25696   0.25844   0.26228   0.26622   0.26752
 Alpha virt. eigenvalues --    0.27073   0.28334   0.29196   0.29667   0.30364
 Alpha virt. eigenvalues --    0.30713   0.32421   0.33455   0.34151   0.34716
 Alpha virt. eigenvalues --    0.34950   0.35473   0.36122   0.36937   0.37594
 Alpha virt. eigenvalues --    0.38154   0.39581   0.40726   0.41166   0.42049
 Alpha virt. eigenvalues --    0.42120   0.43486   0.44135   0.45736   0.45988
 Alpha virt. eigenvalues --    0.46964   0.48551   0.49572   0.50234   0.50594
 Alpha virt. eigenvalues --    0.51527   0.51857   0.53528   0.54167   0.54428
 Alpha virt. eigenvalues --    0.54701   0.55468   0.55733   0.55841   0.56453
 Alpha virt. eigenvalues --    0.57769   0.58138   0.58554   0.59217   0.60315
 Alpha virt. eigenvalues --    0.60554   0.61102   0.61587   0.62108   0.62708
 Alpha virt. eigenvalues --    0.63722   0.64714   0.64955   0.66009   0.66559
 Alpha virt. eigenvalues --    0.67690   0.68192   0.68809   0.70109   0.70414
 Alpha virt. eigenvalues --    0.71048   0.72865   0.73468   0.73854   0.75370
 Alpha virt. eigenvalues --    0.75566   0.76458   0.77064   0.77551   0.77846
 Alpha virt. eigenvalues --    0.78244   0.79254   0.79759   0.79875   0.81107
 Alpha virt. eigenvalues --    0.81534   0.82545   0.83274   0.83959   0.84872
 Alpha virt. eigenvalues --    0.85700   0.85940   0.87121   0.87250   0.88406
 Alpha virt. eigenvalues --    0.88459   0.89344   0.89663   0.89829   0.90732
 Alpha virt. eigenvalues --    0.91172   0.91718   0.92827   0.93722   0.94367
 Alpha virt. eigenvalues --    0.95432   0.95563   0.97323   0.98746   0.99313
 Alpha virt. eigenvalues --    0.99849   1.01206   1.02843   1.03573   1.04755
 Alpha virt. eigenvalues --    1.05755   1.06744   1.08037   1.08542   1.09634
 Alpha virt. eigenvalues --    1.10236   1.11399   1.13195   1.13605   1.14401
 Alpha virt. eigenvalues --    1.15324   1.17102   1.18343   1.20283   1.20629
 Alpha virt. eigenvalues --    1.21607   1.22698   1.23937   1.24218   1.26556
 Alpha virt. eigenvalues --    1.27346   1.29756   1.30248   1.32270   1.34126
 Alpha virt. eigenvalues --    1.37311   1.40083   1.40259   1.41568   1.42728
 Alpha virt. eigenvalues --    1.43614   1.45022   1.46465   1.47271   1.49371
 Alpha virt. eigenvalues --    1.49825   1.50473   1.51642   1.51867   1.52332
 Alpha virt. eigenvalues --    1.53715   1.54193   1.55430   1.56135   1.56450
 Alpha virt. eigenvalues --    1.56790   1.58489   1.59729   1.60387   1.60519
 Alpha virt. eigenvalues --    1.62129   1.63277   1.64919   1.66026   1.67547
 Alpha virt. eigenvalues --    1.68611   1.69177   1.70469   1.71324   1.74151
 Alpha virt. eigenvalues --    1.76825   1.77078   1.79016   1.79375   1.81044
 Alpha virt. eigenvalues --    1.82960   1.85922   1.88151   1.89702   1.90608
 Alpha virt. eigenvalues --    1.91367   1.94485   1.95005   1.97394   2.00538
 Alpha virt. eigenvalues --    2.00829   2.05447   2.07035   2.08349   2.08472
 Alpha virt. eigenvalues --    2.10900   2.13936   2.18609   2.20232   2.24593
 Alpha virt. eigenvalues --    2.27646   2.30685   2.37026   2.37401   2.38001
 Alpha virt. eigenvalues --    2.38279   2.39371   2.39931   2.40470   2.42148
 Alpha virt. eigenvalues --    2.42558   2.43755   2.45057   2.51016   2.54995
 Alpha virt. eigenvalues --    2.61157   2.64127   2.68330   2.71897   2.73263
 Alpha virt. eigenvalues --    2.76308   2.78780   2.81841   2.94679   2.99730
 Alpha virt. eigenvalues --    3.01876   3.09942   3.11449   3.15939   3.17850
 Alpha virt. eigenvalues --    3.24294   3.27131   3.35293   3.59302   3.74888
          Condensed to atoms (all electrons):
 Mulliken charges:
               1
     1  C    0.618643
     2  C   -0.108376
     3  S    0.374843
     4  S    0.296781
     5  C    1.039782
     6  C    1.130930
     7  C    0.787305
     8  N   -1.083412
     9  S    0.557591
    10  C   -1.129849
    11  N   -0.168149
    12  C   -1.099349
    13  N   -0.180568
    14  C   -0.853309
    15  N   -0.182864
 Sum of Mulliken charges =  -0.00000
 Mulliken charges with hydrogens summed into heavy atoms:
               1
     1  C    0.618643
     2  C   -0.108376
     3  S    0.374843
     4  S    0.296781
     5  C    1.039782
     6  C    1.130930
     7  C    0.787305
     8  N   -1.083412
     9  S    0.557591
    10  C   -1.129849
    11  N   -0.168149
    12  C   -1.099349
    13  N   -0.180568
    14  C   -0.853309
    15  N   -0.182864
 Electronic spatial extent (au):  <R**2>=           4013.7185
 Charge=             -0.0000 electrons
 Dipole moment (field-independent basis, Debye):
    X=             -1.6635    Y=             -3.1575    Z=             -3.0360  Tot=              4.6856

 Test job not archived.
 1\1\GINC-CHIMERA-NODE21\SP\RM05\Gen\C8N4S3\CONNORNM\19-Jan-2019\0\\#T 
 M05/Gen test Massage SCF=(fermi,maxcyc=60)\\M05 opt\\0,1\C,0,-0.074999
 71,-0.04823391,-1.01644353\C,0,-0.3387665,-1.28537383,-0.36395708\S,0,
 -0.39537648,1.54164843,-0.33957611\S,0,-1.01101953,-1.42300486,1.26813
 418\C,0,-0.11289928,1.22183593,1.38148422\C,0,-0.35931336,0.04546971,2
 .0163753\C,0,0.40371005,-0.28741817,-2.28881575\N,0,-0.09605093,-2.384
 70699,-1.0350873\S,0,0.45415548,-1.9990791,-2.55807151\C,0,0.37292136,
 2.35927687,2.08950688\N,0,0.74504219,3.31987138,2.62800228\C,0,-0.1407
 7252,-0.0928152,3.41889414\N,0,-0.00522584,-0.24187632,4.56359236\C,0,
 0.77928447,0.65353146,-3.27812161\N,0,1.08309664,1.41175152,-4.1051019
 2\\Version=AS64L-G09RevD.01\HF=-1724.7614838\RMSD=5.146e-09\Dipole=-0.
 6544519,-1.2422675,-1.1944631\Quadrupole=10.2874063,1.0249564,-11.3123
 627,-4.092915,-0.4441524,2.1065716\PG=C01 [X(C8N4S3)]\\@


 Children are likely to live up to what you believe of them.
 -- Lady Bird Johnson
 Job cpu time:       0 days  1 hours 37 minutes 54.3 seconds.
 File lengths (MBytes):  RWF=     58 Int=      0 D2E=      0 Chk=      6 Scr=      1
 Normal termination of Gaussian 09 at Sat Jan 19 11:12:29 2019.
