 Entering Gaussian System, Link 0=/data/szalewicgrp/connornm/opt/Gaussian/g09-M05-par/g09/g09
 AtFile(1): blind-aug.gbs
 Initial command:
 /data/szalewicgrp/connornm/opt/Gaussian/g09-M05-par/g09/l1.exe "/scratch/local/Gau-28225.inp" -scrdir="/scratch/local/"
 Entering Link 1 = /data/szalewicgrp/connornm/opt/Gaussian/g09-M05-par/g09/l1.exe PID=     28226.
  
 Copyright (c) 1988,1990,1992,1993,1995,1998,2003,2009,2013,
            Gaussian, Inc.  All Rights Reserved.
  
 This is part of the Gaussian(R) 09 program.  It is based on
 the Gaussian(R) 03 system (copyright 2003, Gaussian, Inc.),
 the Gaussian(R) 98 system (copyright 1998, Gaussian, Inc.),
 the Gaussian(R) 94 system (copyright 1995, Gaussian, Inc.),
 the Gaussian 92(TM) system (copyright 1992, Gaussian, Inc.),
 the Gaussian 90(TM) system (copyright 1990, Gaussian, Inc.),
 the Gaussian 88(TM) system (copyright 1988, Gaussian, Inc.),
 the Gaussian 86(TM) system (copyright 1986, Carnegie Mellon
 University), and the Gaussian 82(TM) system (copyright 1983,
 Carnegie Mellon University). Gaussian is a federally registered
 trademark of Gaussian, Inc.
  
 This software contains proprietary and confidential information,
 including trade secrets, belonging to Gaussian, Inc.
  
 This software is provided under written license and may be
 used, copied, transmitted, or stored only in accord with that
 written license.
  
 The following legend is applicable only to US Government
 contracts under FAR:
  
                    RESTRICTED RIGHTS LEGEND
  
 Use, reproduction and disclosure by the US Government is
 subject to restrictions as set forth in subparagraphs (a)
 and (c) of the Commercial Computer Software - Restricted
 Rights clause in FAR 52.227-19.
  
 Gaussian, Inc.
 340 Quinnipiac St., Bldg. 40, Wallingford CT 06492
  
  
 ---------------------------------------------------------------
 Warning -- This program may not be used in any manner that
 competes with the business of Gaussian, Inc. or will provide
 assistance to any competitor of Gaussian, Inc.  The licensee
 of this program is prohibited from giving any competitor of
 Gaussian, Inc. access to this program.  By using this program,
 the user acknowledges that Gaussian, Inc. is engaged in the
 business of creating and licensing software in the field of
 computational chemistry and represents and warrants to the
 licensee that it is not a competitor of Gaussian, Inc. and that
 it will not use this program in any manner prohibited above.
 ---------------------------------------------------------------
  

 Cite this work as:
 Gaussian 09, Revision D.01,
 M. J. Frisch, G. W. Trucks, H. B. Schlegel, G. E. Scuseria, 
 M. A. Robb, J. R. Cheeseman, G. Scalmani, V. Barone, B. Mennucci, 
 G. A. Petersson, H. Nakatsuji, M. Caricato, X. Li, H. P. Hratchian, 
 A. F. Izmaylov, J. Bloino, G. Zheng, J. L. Sonnenberg, M. Hada, 
 M. Ehara, K. Toyota, R. Fukuda, J. Hasegawa, M. Ishida, T. Nakajima, 
 Y. Honda, O. Kitao, H. Nakai, T. Vreven, J. A. Montgomery, Jr., 
 J. E. Peralta, F. Ogliaro, M. Bearpark, J. J. Heyd, E. Brothers, 
 K. N. Kudin, V. N. Staroverov, T. Keith, R. Kobayashi, J. Normand, 
 K. Raghavachari, A. Rendell, J. C. Burant, S. S. Iyengar, J. Tomasi, 
 M. Cossi, N. Rega, J. M. Millam, M. Klene, J. E. Knox, J. B. Cross, 
 V. Bakken, C. Adamo, J. Jaramillo, R. Gomperts, R. E. Stratmann, 
 O. Yazyev, A. J. Austin, R. Cammi, C. Pomelli, J. W. Ochterski, 
 R. L. Martin, K. Morokuma, V. G. Zakrzewski, G. A. Voth, 
 P. Salvador, J. J. Dannenberg, S. Dapprich, A. D. Daniels, 
 O. Farkas, J. B. Foresman, J. V. Ortiz, J. Cioslowski, 
 and D. J. Fox, Gaussian, Inc., Wallingford CT, 2013.
 
 ******************************************
 Gaussian 09:  AS64L-G09RevD.01 24-Apr-2013
                19-Jan-2019 
 ******************************************
 %Chk=BLIND01447_mA
 %Mem=1GB
 %NProcShared=48
 Will use up to   48 processors via shared memory.
 ---------------------------------------------
 #T M05/Gen test Massage SCF=(fermi,maxcyc=60)
 ---------------------------------------------
 -------
 M05 opt
 -------
 Symbolic Z-matrix:
 Charge =  0 Multiplicity = 1
 6                    -0.69214   0.52153  -0.53857 
 6                    -0.77745  -0.88876  -0.7107 
 16                   -0.14889   1.33186   0.9232 
 16                   -0.31383  -2.06916   0.52474 
 6                     1.04712   0.16347   1.51359 
 6                     0.9782   -1.18478   1.35512 
 6                    -1.16824   1.15656  -1.66789 
 7                    -1.26188  -1.32934  -1.84607 
 16                   -1.69295  -0.04018  -2.80689 
 6                     2.11249   0.77155   2.23906 
 7                     2.94692   1.31051   2.84276 
 6                     1.97245  -2.04223   1.91207 
 7                     2.74324  -2.78011   2.37287 
 6                    -1.27427   2.54665  -1.91607 
 7                    -1.37712   3.68392  -2.13313 
 
                    Distance matrix (angstroms):
                    1          2          3          4          5
     1  C    0.000000
     2  C    1.423315   0.000000
     3  S    1.757418   2.827694   0.000000
     4  S    2.825849   1.770477   3.428253   0.000000
     5  C    2.713774   3.063280   1.773167   2.795470   0.000000
     6  C    3.047557   2.727187   2.791121   1.772288   1.359281
     7  C    1.380327   2.291783   2.789903   3.992857   4.001979
     8  N    2.336642   1.310672   3.998700   2.658358   4.341342
     9  S    2.542129   2.439721   4.263822   4.137445   5.120151
    10  C    3.955208   4.450782   2.675676   4.110426   1.425163
    11  N    5.029770   5.597745   3.642685   5.237162   2.586817
    12  C    4.436049   3.971317   4.106384   2.674416   2.424897
    13  N    5.583831   5.047859   5.232040   3.642352   3.504263
    14  C    2.517432   3.674472   3.286888   5.309014   4.778168
    15  N    3.607292   4.826214   4.047461   6.425950   5.618639
                    6          7          8          9         10
     6  C    0.000000
     7  C    4.384939   0.000000
     8  N    3.909794   2.494036   0.000000
     9  S    5.076167   1.733444   1.664607   0.000000
    10  C    2.428007   5.116215   5.699860   6.371958   0.000000
    11  N    3.509330   6.107712   6.831389   7.434461   1.162408
    12  C    1.426163   5.736923   5.009263   6.301738   2.836178
    13  N    2.587713   6.864751   5.995430   7.349618   3.609722
    14  C    5.449573   1.416040   3.876636   2.767765   5.646781
    15  N    6.435818   2.578302   5.022796   3.797715   6.306769
                   11         12         13         14         15
    11  N    0.000000
    12  C    3.613393   0.000000
    13  N    4.122555   1.162293   0.000000
    14  C    6.480188   6.800997   7.931563   0.000000
    15  N    7.006418   7.769948   8.891861   1.162367   0.000000
 Symmetry turned off by external request.
 Framework group  C1[X(C8N4S3)]
 Deg. of freedom    39
 Rotational constants (GHZ):      0.7722167      0.3388923      0.2463240
   357 basis functions,   759 primitive gaussians,   387 cartesian basis functions
    62 alpha electrons       62 beta electrons
       nuclear repulsion energy      1166.1400393856 Hartrees.
 IMHF & INEx in M05                  599485                  400514
 NAtoms=   15 NActive=   15 NUniq=   15 SFac= 1.00D+00 NAtFMM=   60 NAOKFM=F Big=F
 PrsmSu:  requested number of processors reduced to:  34 ShMem   1 Linda.
 ExpMin= 3.99D-02 ExpMax= 1.11D+05 ExpMxC= 1.07D+03 IAcc=3 IRadAn=         5 AccDes= 0.00D+00
 Harris functional with IExCor= 1009 and IRadAn=       5 diagonalized for initial guess.
 HarFok:  IExCor= 1009 AccDes= 0.00D+00 IRadAn=         5 IDoV= 1 UseB2=F ITyADJ=14
 ICtDFT=  3500011 ScaDFX=  1.000000  1.000000  1.000000  1.000000
 FoFCou: FMM=F IPFlag=           0 FMFlag=      100000 FMFlg1=           0
         NFxFlg=           0 DoJE=T BraDBF=F KetDBF=T FulRan=T
         wScrn=  0.000000 ICntrl=     500 IOpCl=  0 I1Cent=   200000004 NGrid=           0
         NMat0=    1 NMatS0=      1 NMatT0=    0 NMatD0=    1 NMtDS0=    0 NMtDT0=    0
 Symmetry not used in FoFCou.
 SCF Done:  E(RM05) =  -1724.76148077     A.U. after   17 cycles
            NFock= 17  Conv=0.52D-08     -V/T= 2.0061

 **********************************************************************

            Population analysis using the SCF density.

 **********************************************************************

 Alpha  occ. eigenvalues --  -90.56430 -90.53636 -90.53182 -15.08622 -15.05416
 Alpha  occ. eigenvalues --  -15.04969 -15.04934 -10.89945 -10.89827 -10.89736
 Alpha  occ. eigenvalues --  -10.88752 -10.87414 -10.84946 -10.84332 -10.84311
 Alpha  occ. eigenvalues --   -8.57526  -8.55035  -8.54610  -6.40063  -6.39713
 Alpha  occ. eigenvalues --   -6.39401  -6.37597  -6.37282  -6.37163  -6.36853
 Alpha  occ. eigenvalues --   -6.36822  -6.36393  -1.20533  -1.12895  -1.12139
 Alpha  occ. eigenvalues --   -1.11337  -1.07643  -1.03801  -0.98824  -0.97396
 Alpha  occ. eigenvalues --   -0.88002  -0.84555  -0.82236  -0.73687  -0.71296
 Alpha  occ. eigenvalues --   -0.67838  -0.64612  -0.59530  -0.57258  -0.55386
 Alpha  occ. eigenvalues --   -0.53385  -0.52647  -0.52243  -0.51890  -0.50883
 Alpha  occ. eigenvalues --   -0.50387  -0.49356  -0.48215  -0.46805  -0.46074
 Alpha  occ. eigenvalues --   -0.45933  -0.45296  -0.43720  -0.43113  -0.39488
 Alpha  occ. eigenvalues --   -0.37628  -0.33120
 Alpha virt. eigenvalues --   -0.09329  -0.08268  -0.02099  -0.01262  -0.00504
 Alpha virt. eigenvalues --   -0.00360   0.00153   0.01255   0.02022   0.02228
 Alpha virt. eigenvalues --    0.02392   0.02957   0.03188   0.04003   0.04278
 Alpha virt. eigenvalues --    0.04486   0.05428   0.06007   0.06299   0.07068
 Alpha virt. eigenvalues --    0.07271   0.07526   0.07706   0.08290   0.08491
 Alpha virt. eigenvalues --    0.09377   0.10093   0.10389   0.10526   0.10808
 Alpha virt. eigenvalues --    0.11287   0.11392   0.11978   0.12528   0.13227
 Alpha virt. eigenvalues --    0.13489   0.13938   0.14457   0.15079   0.15191
 Alpha virt. eigenvalues --    0.15901   0.16269   0.16675   0.16813   0.17189
 Alpha virt. eigenvalues --    0.17356   0.17842   0.18619   0.19052   0.19568
 Alpha virt. eigenvalues --    0.19858   0.20236   0.20683   0.20946   0.21272
 Alpha virt. eigenvalues --    0.21881   0.22213   0.22585   0.22823   0.23613
 Alpha virt. eigenvalues --    0.23747   0.24107   0.24371   0.24704   0.25257
 Alpha virt. eigenvalues --    0.25698   0.25849   0.26227   0.26624   0.26751
 Alpha virt. eigenvalues --    0.27068   0.28334   0.29194   0.29663   0.30369
 Alpha virt. eigenvalues --    0.30709   0.32420   0.33456   0.34155   0.34716
 Alpha virt. eigenvalues --    0.34948   0.35472   0.36120   0.36936   0.37593
 Alpha virt. eigenvalues --    0.38151   0.39577   0.40727   0.41168   0.42049
 Alpha virt. eigenvalues --    0.42120   0.43482   0.44137   0.45737   0.45982
 Alpha virt. eigenvalues --    0.46961   0.48544   0.49575   0.50228   0.50595
 Alpha virt. eigenvalues --    0.51525   0.51857   0.53526   0.54163   0.54423
 Alpha virt. eigenvalues --    0.54699   0.55466   0.55733   0.55836   0.56451
 Alpha virt. eigenvalues --    0.57764   0.58138   0.58553   0.59214   0.60309
 Alpha virt. eigenvalues --    0.60549   0.61104   0.61589   0.62105   0.62710
 Alpha virt. eigenvalues --    0.63716   0.64718   0.64955   0.66008   0.66556
 Alpha virt. eigenvalues --    0.67691   0.68190   0.68806   0.70105   0.70410
 Alpha virt. eigenvalues --    0.71049   0.72863   0.73468   0.73855   0.75370
 Alpha virt. eigenvalues --    0.75565   0.76455   0.77063   0.77550   0.77843
 Alpha virt. eigenvalues --    0.78247   0.79254   0.79761   0.79879   0.81108
 Alpha virt. eigenvalues --    0.81537   0.82545   0.83276   0.83955   0.84872
 Alpha virt. eigenvalues --    0.85699   0.85939   0.87122   0.87246   0.88404
 Alpha virt. eigenvalues --    0.88459   0.89344   0.89667   0.89830   0.90729
 Alpha virt. eigenvalues --    0.91171   0.91724   0.92830   0.93724   0.94368
 Alpha virt. eigenvalues --    0.95431   0.95567   0.97324   0.98745   0.99313
 Alpha virt. eigenvalues --    0.99847   1.01204   1.02849   1.03575   1.04748
 Alpha virt. eigenvalues --    1.05759   1.06742   1.08038   1.08539   1.09635
 Alpha virt. eigenvalues --    1.10235   1.11397   1.13194   1.13607   1.14402
 Alpha virt. eigenvalues --    1.15322   1.17104   1.18342   1.20285   1.20632
 Alpha virt. eigenvalues --    1.21607   1.22700   1.23936   1.24223   1.26557
 Alpha virt. eigenvalues --    1.27344   1.29758   1.30251   1.32269   1.34127
 Alpha virt. eigenvalues --    1.37314   1.40083   1.40259   1.41564   1.42730
 Alpha virt. eigenvalues --    1.43617   1.45024   1.46460   1.47273   1.49371
 Alpha virt. eigenvalues --    1.49824   1.50474   1.51641   1.51869   1.52330
 Alpha virt. eigenvalues --    1.53716   1.54193   1.55430   1.56136   1.56452
 Alpha virt. eigenvalues --    1.56789   1.58485   1.59723   1.60389   1.60517
 Alpha virt. eigenvalues --    1.62131   1.63279   1.64921   1.66027   1.67548
 Alpha virt. eigenvalues --    1.68611   1.69177   1.70469   1.71322   1.74153
 Alpha virt. eigenvalues --    1.76824   1.77077   1.79015   1.79377   1.81041
 Alpha virt. eigenvalues --    1.82959   1.85922   1.88150   1.89704   1.90608
 Alpha virt. eigenvalues --    1.91370   1.94484   1.95005   1.97393   2.00539
 Alpha virt. eigenvalues --    2.00827   2.05448   2.07034   2.08351   2.08475
 Alpha virt. eigenvalues --    2.10896   2.13937   2.18606   2.20234   2.24593
 Alpha virt. eigenvalues --    2.27645   2.30687   2.37027   2.37401   2.38002
 Alpha virt. eigenvalues --    2.38279   2.39369   2.39930   2.40470   2.42149
 Alpha virt. eigenvalues --    2.42559   2.43755   2.45058   2.51019   2.54995
 Alpha virt. eigenvalues --    2.61158   2.64122   2.68330   2.71896   2.73263
 Alpha virt. eigenvalues --    2.76309   2.78780   2.81840   2.94680   2.99730
 Alpha virt. eigenvalues --    3.01876   3.09943   3.11451   3.15941   3.17850
 Alpha virt. eigenvalues --    3.24293   3.27131   3.35294   3.59306   3.74893
          Condensed to atoms (all electrons):
 Mulliken charges:
               1
     1  C    0.619617
     2  C   -0.109509
     3  S    0.374065
     4  S    0.296779
     5  C    1.039867
     6  C    1.131250
     7  C    0.786964
     8  N   -1.083350
     9  S    0.557494
    10  C   -1.129635
    11  N   -0.168008
    12  C   -1.099222
    13  N   -0.180520
    14  C   -0.852960
    15  N   -0.182832
 Sum of Mulliken charges =  -0.00000
 Mulliken charges with hydrogens summed into heavy atoms:
               1
     1  C    0.619617
     2  C   -0.109509
     3  S    0.374065
     4  S    0.296779
     5  C    1.039867
     6  C    1.131250
     7  C    0.786964
     8  N   -1.083350
     9  S    0.557494
    10  C   -1.129635
    11  N   -0.168008
    12  C   -1.099222
    13  N   -0.180520
    14  C   -0.852960
    15  N   -0.182832
 Electronic spatial extent (au):  <R**2>=           4013.7191
 Charge=             -0.0000 electrons
 Dipole moment (field-independent basis, Debye):
    X=             -3.8519    Y=             -1.1499    Z=             -2.4065  Tot=              4.6851

 Test job not archived.
 1\1\GINC-CHIMERA-NODE41\SP\RM05\Gen\C8N4S3\CONNORNM\19-Jan-2019\0\\#T 
 M05/Gen test Massage SCF=(fermi,maxcyc=60)\\M05 opt\\0,1\C,0,-0.692142
 31,0.52153201,-0.53856503\C,0,-0.77745338,-0.88875871,-0.71069514\S,0,
 -0.14888642,1.33185827,0.92320138\S,0,-0.31383012,-2.06916172,0.524736
 17\C,0,1.04712087,0.16346871,1.5135864\C,0,0.97819651,-1.18478327,1.35
 512476\C,0,-1.16823677,1.15656132,-1.66789008\N,0,-1.26187513,-1.32933
 87,-1.84607387\S,0,-1.69294766,-0.04017994,-2.80688762\C,0,2.11248854,
 0.77155479,2.23906052\N,0,2.94691593,1.31050839,2.84275994\C,0,1.97245
 196,-2.04222798,1.91206873\N,0,2.74323988,-2.78011238,2.37287101\C,0,-
 1.27426582,2.54664575,-1.91606655\N,0,-1.37712191,3.68392294,-2.133131
 39\\Version=AS64L-G09RevD.01\HF=-1724.7614808\RMSD=5.163e-09\Dipole=-1
 .5154591,-0.4523861,-0.9467802\Quadrupole=0.3935113,-5.7029374,5.30942
 62,4.0342823,-8.6521683,4.1511607\PG=C01 [X(C8N4S3)]\\@


 WE STILL HAVE JUDGEMENT HERE,
 THAT WE TEACH BUT BLOODY INSTRUCTIONS,
 WHICH, BEING TAUGHT,
 RETURN TO PLAGUE THE INVENTOR.
           MACBETH ACT I, SCENE VII
 Job cpu time:       0 days  1 hours 37 minutes 48.8 seconds.
 File lengths (MBytes):  RWF=     58 Int=      0 D2E=      0 Chk=      6 Scr=      1
 Normal termination of Gaussian 09 at Sat Jan 19 10:46:55 2019.
