 Entering Gaussian System, Link 0=/data/szalewicgrp/connornm/opt/Gaussian/g09-M05-par/g09/g09
 AtFile(1): blind-aug.gbs
 Initial command:
 /data/szalewicgrp/connornm/opt/Gaussian/g09-M05-par/g09/l1.exe "/scratch/local/Gau-34218.inp" -scrdir="/scratch/local/"
 Entering Link 1 = /data/szalewicgrp/connornm/opt/Gaussian/g09-M05-par/g09/l1.exe PID=     34219.
  
 Copyright (c) 1988,1990,1992,1993,1995,1998,2003,2009,2013,
            Gaussian, Inc.  All Rights Reserved.
  
 This is part of the Gaussian(R) 09 program.  It is based on
 the Gaussian(R) 03 system (copyright 2003, Gaussian, Inc.),
 the Gaussian(R) 98 system (copyright 1998, Gaussian, Inc.),
 the Gaussian(R) 94 system (copyright 1995, Gaussian, Inc.),
 the Gaussian 92(TM) system (copyright 1992, Gaussian, Inc.),
 the Gaussian 90(TM) system (copyright 1990, Gaussian, Inc.),
 the Gaussian 88(TM) system (copyright 1988, Gaussian, Inc.),
 the Gaussian 86(TM) system (copyright 1986, Carnegie Mellon
 University), and the Gaussian 82(TM) system (copyright 1983,
 Carnegie Mellon University). Gaussian is a federally registered
 trademark of Gaussian, Inc.
  
 This software contains proprietary and confidential information,
 including trade secrets, belonging to Gaussian, Inc.
  
 This software is provided under written license and may be
 used, copied, transmitted, or stored only in accord with that
 written license.
  
 The following legend is applicable only to US Government
 contracts under FAR:
  
                    RESTRICTED RIGHTS LEGEND
  
 Use, reproduction and disclosure by the US Government is
 subject to restrictions as set forth in subparagraphs (a)
 and (c) of the Commercial Computer Software - Restricted
 Rights clause in FAR 52.227-19.
  
 Gaussian, Inc.
 340 Quinnipiac St., Bldg. 40, Wallingford CT 06492
  
  
 ---------------------------------------------------------------
 Warning -- This program may not be used in any manner that
 competes with the business of Gaussian, Inc. or will provide
 assistance to any competitor of Gaussian, Inc.  The licensee
 of this program is prohibited from giving any competitor of
 Gaussian, Inc. access to this program.  By using this program,
 the user acknowledges that Gaussian, Inc. is engaged in the
 business of creating and licensing software in the field of
 computational chemistry and represents and warrants to the
 licensee that it is not a competitor of Gaussian, Inc. and that
 it will not use this program in any manner prohibited above.
 ---------------------------------------------------------------
  

 Cite this work as:
 Gaussian 09, Revision D.01,
 M. J. Frisch, G. W. Trucks, H. B. Schlegel, G. E. Scuseria, 
 M. A. Robb, J. R. Cheeseman, G. Scalmani, V. Barone, B. Mennucci, 
 G. A. Petersson, H. Nakatsuji, M. Caricato, X. Li, H. P. Hratchian, 
 A. F. Izmaylov, J. Bloino, G. Zheng, J. L. Sonnenberg, M. Hada, 
 M. Ehara, K. Toyota, R. Fukuda, J. Hasegawa, M. Ishida, T. Nakajima, 
 Y. Honda, O. Kitao, H. Nakai, T. Vreven, J. A. Montgomery, Jr., 
 J. E. Peralta, F. Ogliaro, M. Bearpark, J. J. Heyd, E. Brothers, 
 K. N. Kudin, V. N. Staroverov, T. Keith, R. Kobayashi, J. Normand, 
 K. Raghavachari, A. Rendell, J. C. Burant, S. S. Iyengar, J. Tomasi, 
 M. Cossi, N. Rega, J. M. Millam, M. Klene, J. E. Knox, J. B. Cross, 
 V. Bakken, C. Adamo, J. Jaramillo, R. Gomperts, R. E. Stratmann, 
 O. Yazyev, A. J. Austin, R. Cammi, C. Pomelli, J. W. Ochterski, 
 R. L. Martin, K. Morokuma, V. G. Zakrzewski, G. A. Voth, 
 P. Salvador, J. J. Dannenberg, S. Dapprich, A. D. Daniels, 
 O. Farkas, J. B. Foresman, J. V. Ortiz, J. Cioslowski, 
 and D. J. Fox, Gaussian, Inc., Wallingford CT, 2013.
 
 ******************************************
 Gaussian 09:  AS64L-G09RevD.01 24-Apr-2013
                19-Jan-2019 
 ******************************************
 %Chk=BLIND00533
 %Mem=1GB
 %NProcShared=48
 Will use up to   48 processors via shared memory.
 ---------------------------------------------
 #T M05/Gen test Massage SCF=(fermi,maxcyc=60)
 ---------------------------------------------
 -------
 M05 opt
 -------
 Symbolic Z-matrix:
 Charge =  0 Multiplicity = 1
 6                    -0.22617  -0.82349  -0.55841 
 6                    -0.81626  -0.83082   0.7368 
 16                    0.13009   0.61679  -1.50032 
 16                   -1.2627    0.62982   1.63223 
 6                     0.51563   1.76266  -0.20322 
 6                    -0.03941   1.76602   1.03757 
 6                    -0.04213  -2.12099  -0.99192 
 7                    -1.0709   -1.99767   1.2767 
 16                   -0.63513  -3.20845   0.22075 
 6                     1.46325   2.75258  -0.59458 
 7                     2.22003   3.5523   -0.9673 
 6                     0.30705   2.76444   1.9952 
 7                     0.53744   3.57454   2.79619 
 6                     0.50087  -2.56867  -2.2207 
 7                     0.93541  -2.9539   -3.22761 
 6                    -0.93709   0.02213   7.35901 
 6                    -0.19278   1.21583   7.57558 
 16                   -0.77125  -1.03535   5.96519 
 16                    1.05843   1.81823   6.47732 
 6                     0.95607  -0.83923   5.61585 
 6                     1.67853   0.29413   5.81882 
 6                    -1.85856  -0.14078   8.37373 
 7                    -0.48309   1.92249   8.64058 
 16                   -1.7323    1.19755   9.46814 
 6                     1.54537  -2.00096   5.03777 
 7                     1.97499  -2.96328   4.54731 
 6                     3.0567    0.36187   5.45828 
 7                     4.17287   0.47149   5.15321 
 6                    -2.80468  -1.18059   8.5435 
 7                    -3.59356  -2.02094   8.69376 
 
                    Distance matrix (angstroms):
                    1          2          3          4          5
     1  C    0.000000
     2  C    1.423315   0.000000
     3  S    1.757418   2.827694   0.000000
     4  S    2.825849   1.770477   3.428253   0.000000
     5  C    2.713774   3.063280   1.773167   2.795470   0.000000
     6  C    3.047557   2.727187   2.791121   1.772288   1.359281
     7  C    1.380327   2.291783   2.789903   3.992857   4.001979
     8  N    2.336642   1.310672   3.998700   2.658358   4.341342
     9  S    2.542129   2.439721   4.263822   4.137445   5.120151
    10  C    3.955208   4.450782   2.675676   4.110426   1.425163
    11  N    5.029770   5.597745   3.642685   5.237162   2.586817
    12  C    4.436049   3.971317   4.106384   2.674416   2.424897
    13  N    5.583831   5.047859   5.232040   3.642352   3.504263
    14  C    2.517432   3.674472   3.286888   5.309014   4.778168
    15  N    3.607292   4.826214   4.047461   6.425950   5.618639
    16  C    7.994126   6.678011   8.943165   5.768125   7.894750
    17  C    8.385811   7.165649   9.101379   6.067251   7.830106
    18  S    6.549760   5.232583   7.699077   4.667848   6.894499
    19  S    7.624324   6.594351   8.120833   5.502251   6.702777
    20  C    6.286447   5.190985   7.310407   4.790634   6.389465
    21  C    6.748778   5.772036   7.488093   5.127472   6.306645
    22  C    9.105705   7.738554  10.100762   6.811503   9.100756
    23  N    9.603533   8.376245  10.242980   7.169077   8.901443
    24  S   10.338512   9.010540  11.140598   7.870470   9.945235
    25  C    5.986820   5.044288   7.183468   5.138472   6.533992
    26  N    5.957534   5.182514   7.265975   5.647183   6.857967
    27  C    6.955781   6.222115   7.553287   5.776472   6.361743
    28  N    7.324698   6.789121   7.786829   6.478256   6.613159
    29  C    9.466840   8.063546  10.617051   7.308959   9.807762
    30  N    9.918467   8.511352  11.168820   7.894596  10.505108
                    6          7          8          9         10
     6  C    0.000000
     7  C    4.384939   0.000000
     8  N    3.909794   2.494036   0.000000
     9  S    5.076167   1.733444   1.664607   0.000000
    10  C    2.428007   5.116215   5.699860   6.371958   0.000000
    11  N    3.509330   6.107712   6.831389   7.434461   1.162408
    12  C    1.426163   5.736923   5.009263   6.301738   2.836178
    13  N    2.587713   6.864751   5.995430   7.349618   3.609722
    14  C    5.449573   1.416040   3.876636   2.767765   5.646781
    15  N    6.435818   2.578302   5.022796   3.797715   6.306769
    16  C    6.618725   8.667871   6.410306   7.841081   8.745088
    17  C    6.562909   9.195610   7.125564   8.594388   8.476768
    18  S    5.715300   7.078956   4.795600   6.143240   7.897593
    19  S    5.549664   8.515760   6.792756   8.202452   7.144832
    20  C    5.360864   6.804554   4.927354   6.103456   7.192197
    21  C    5.289429   7.428302   5.782954   6.997102   6.871825
    22  C    7.795146   9.743511   7.378092   8.796495   9.991820
    23  N    7.617545  10.456063   8.363008   9.861194   9.474464
    24  S    8.617627  11.103259   8.817406  10.301982  10.671835
    25  C    5.718672   6.236324   4.581543   5.423673   7.370629
    26  N    6.224337   5.954942   4.572393   5.058844   7.705319
    27  C    5.576755   7.574462   6.331678   7.335428   6.700127
    28  N    6.029731   7.889860   6.972896   7.809483   6.751486
    29  C    8.524561   9.971977   7.515320   8.836700  10.825413
    30  N    9.251501  10.316744   7.834362   9.052865  11.603066
                   11         12         13         14         15
    11  N    0.000000
    12  C    3.613393   0.000000
    13  N    4.122555   1.162293   0.000000
    14  C    6.480188   6.800997   7.931563   0.000000
    15  N    7.006418   7.769948   8.891861   1.162367   0.000000
    16  C    9.578984   6.151309   5.967680  10.027505  11.155249
    17  C    9.179410   5.812802   5.379527  10.524773  11.634799
    18  S    8.834801   5.600178   5.745118   8.424852   9.544689
    19  S    7.731665   4.642115   4.111783   9.757626  10.815450
    20  C    8.013797   5.149438   5.254242   8.038016   9.092803
    21  C    7.547204   4.754304   4.604285   8.614894   9.640531
    22  C   10.841057   7.335924   7.117118  11.122205  12.260136
    23  N   10.113085   6.744942   6.158541  11.794327  12.909117
    24  S   11.404570   7.903098   7.437524  12.482010  13.621065
    25  C    8.206990   5.787892   6.093178   7.355177   8.342459
    26  N    8.539541   6.488615   6.919259   6.937916   7.844117
    27  C    7.222670   5.032477   4.873874   8.607387   9.536190
    28  N    7.125005   5.493199   5.329245   8.780706   9.615231
    29  C   11.751736   8.253872   8.173902  11.345548  12.477660
    30  N   12.577559   9.109634   9.118992  11.670043  12.786759
                   16         17         18         19         20
    16  C    0.000000
    17  C    1.423315   0.000000
    18  S    1.757418   2.827694   0.000000
    19  S    2.825849   1.770477   3.428253   0.000000
    20  C    2.713774   3.063280   1.773167   2.795470   0.000000
    21  C    3.047557   2.727187   2.791121   1.772288   1.359281
    22  C    1.380327   2.291783   2.789903   3.992857   4.001979
    23  N    2.336642   1.310672   3.998700   2.658358   4.341342
    24  S    2.542129   2.439721   4.263822   4.137445   5.120151
    25  C    3.955208   4.450782   2.675676   4.110426   1.425163
    26  N    5.029770   5.597745   3.642685   5.237162   2.586817
    27  C    4.436049   3.971317   4.106384   2.674416   2.424897
    28  N    5.583831   5.047859   5.232040   3.642352   3.504263
    29  C    2.517432   3.674472   3.286888   5.309014   4.778168
    30  N    3.607292   4.826214   4.047461   6.425950   5.618639
                   21         22         23         24         25
    21  C    0.000000
    22  C    4.384939   0.000000
    23  N    3.909794   2.494036   0.000000
    24  S    5.076167   1.733444   1.664607   0.000000
    25  C    2.428007   5.116215   5.699860   6.371958   0.000000
    26  N    3.509330   6.107712   6.831389   7.434461   1.162408
    27  C    1.426163   5.736923   5.009263   6.301738   2.836178
    28  N    2.587713   6.864751   5.995430   7.349618   3.609722
    29  C    5.449573   1.416040   3.876636   2.767765   5.646781
    30  N    6.435818   2.578302   5.022796   3.797715   6.306769
                   26         27         28         29         30
    26  N    0.000000
    27  C    3.613393   0.000000
    28  N    4.122555   1.162293   0.000000
    29  C    6.480188   6.800997   7.931563   0.000000
    30  N    7.006418   7.769948   8.891861   1.162367   0.000000
 Symmetry turned off by external request.
 Framework group  C1[X(C16N8S6)]
 Deg. of freedom    84
 Rotational constants (GHZ):      0.1782693      0.0610970      0.0544394
   714 basis functions,  1518 primitive gaussians,   774 cartesian basis functions
   124 alpha electrons      124 beta electrons
       nuclear repulsion energy      3443.6658449134 Hartrees.
 IMHF & INEx in M05                  599485                  400514
 NAtoms=   30 NActive=   30 NUniq=   30 SFac= 1.00D+00 NAtFMM=   60 NAOKFM=F Big=F
 PrsmSu:  requested number of processors reduced to:  26 ShMem   1 Linda.
 ExpMin= 3.99D-02 ExpMax= 1.11D+05 ExpMxC= 1.07D+03 IAcc=3 IRadAn=         5 AccDes= 0.00D+00
 Harris functional with IExCor= 1009 and IRadAn=       5 diagonalized for initial guess.
 HarFok:  IExCor= 1009 AccDes= 0.00D+00 IRadAn=         5 IDoV= 1 UseB2=F ITyADJ=14
 ICtDFT=  3500011 ScaDFX=  1.000000  1.000000  1.000000  1.000000
 FoFCou: FMM=F IPFlag=           0 FMFlag=      100000 FMFlg1=           0
         NFxFlg=           0 DoJE=T BraDBF=F KetDBF=T FulRan=T
         wScrn=  0.000000 ICntrl=     500 IOpCl=  0 I1Cent=   200000004 NGrid=           0
         NMat0=    1 NMatS0=      1 NMatT0=    0 NMatD0=    1 NMtDS0=    0 NMtDT0=    0
 Symmetry not used in FoFCou.
 SCF Done:  E(RM05) =  -3448.36041638     A.U. after   17 cycles
            NFock= 17  Conv=0.87D-08     -V/T= 2.0058

 **********************************************************************

            Population analysis using the SCF density.

 **********************************************************************

 Alpha  occ. eigenvalues --  -90.54863 -90.54642 -90.52163 -90.51944 -90.51907
 Alpha  occ. eigenvalues --  -90.51307 -15.08038 -15.07732 -15.04719 -15.04678
 Alpha  occ. eigenvalues --  -15.04632 -15.04429 -15.04310 -15.04203 -10.89575
 Alpha  occ. eigenvalues --  -10.89475 -10.89256 -10.89230 -10.89088 -10.88884
 Alpha  occ. eigenvalues --  -10.88175 -10.87975 -10.86834 -10.86644 -10.84265
 Alpha  occ. eigenvalues --  -10.84265 -10.84239 -10.83848 -10.83843 -10.83631
 Alpha  occ. eigenvalues --   -8.57457  -8.57248  -8.55069  -8.54841  -8.54835
 Alpha  occ. eigenvalues --   -8.54225  -6.40178  -6.39970  -6.39827  -6.39620
 Alpha  occ. eigenvalues --   -6.39518  -6.39309  -6.37815  -6.37588  -6.37574
 Alpha  occ. eigenvalues --   -6.37501  -6.37275  -6.37266  -6.37042  -6.36962
 Alpha  occ. eigenvalues --   -6.36816  -6.36809  -6.36652  -6.36191  -1.20740
 Alpha  occ. eigenvalues --   -1.20465  -1.13318  -1.12988  -1.12178  -1.12154
 Alpha  occ. eigenvalues --   -1.11751  -1.11447  -1.07998  -1.07678  -1.04021
 Alpha  occ. eigenvalues --   -1.03758  -0.99108  -0.98789  -0.97691  -0.97376
 Alpha  occ. eigenvalues --   -0.88297  -0.87985  -0.84855  -0.84564  -0.82469
 Alpha  occ. eigenvalues --   -0.82235  -0.74083  -0.73745  -0.71574  -0.71273
 Alpha  occ. eigenvalues --   -0.68101  -0.67854  -0.64924  -0.64615  -0.59831
 Alpha  occ. eigenvalues --   -0.59550  -0.57596  -0.57270  -0.55782  -0.55485
 Alpha  occ. eigenvalues --   -0.53684  -0.53405  -0.52885  -0.52673  -0.52541
 Alpha  occ. eigenvalues --   -0.52293  -0.52232  -0.52048  -0.51237  -0.50952
 Alpha  occ. eigenvalues --   -0.50592  -0.50414  -0.49626  -0.49362  -0.48728
 Alpha  occ. eigenvalues --   -0.48346  -0.47012  -0.46871  -0.46634  -0.46304
 Alpha  occ. eigenvalues --   -0.46268  -0.46065  -0.45620  -0.45360  -0.44004
 Alpha  occ. eigenvalues --   -0.43697  -0.43475  -0.43076  -0.39798  -0.39553
 Alpha  occ. eigenvalues --   -0.37897  -0.37602  -0.33475  -0.33050
 Alpha virt. eigenvalues --   -0.09780  -0.09442  -0.08463  -0.08289  -0.02550
 Alpha virt. eigenvalues --   -0.02160  -0.01472  -0.01253  -0.01235  -0.00649
 Alpha virt. eigenvalues --   -0.00331  -0.00064   0.00153   0.00508   0.00980
 Alpha virt. eigenvalues --    0.01242   0.01693   0.01881   0.02135   0.02435
 Alpha virt. eigenvalues --    0.02637   0.02726   0.03011   0.03168   0.03333
 Alpha virt. eigenvalues --    0.03656   0.04232   0.04409   0.04712   0.04939
 Alpha virt. eigenvalues --    0.05035   0.05541   0.05883   0.06058   0.06152
 Alpha virt. eigenvalues --    0.06188   0.06472   0.06800   0.07086   0.07260
 Alpha virt. eigenvalues --    0.07545   0.07894   0.07973   0.08041   0.08366
 Alpha virt. eigenvalues --    0.08750   0.08890   0.09346   0.09664   0.09993
 Alpha virt. eigenvalues --    0.10068   0.10194   0.10382   0.10695   0.11063
 Alpha virt. eigenvalues --    0.11206   0.11267   0.11401   0.11704   0.11896
 Alpha virt. eigenvalues --    0.12139   0.12316   0.12562   0.12759   0.12866
 Alpha virt. eigenvalues --    0.13011   0.13258   0.13389   0.14105   0.14238
 Alpha virt. eigenvalues --    0.14384   0.14617   0.14840   0.15076   0.15246
 Alpha virt. eigenvalues --    0.15337   0.15807   0.16172   0.16279   0.16478
 Alpha virt. eigenvalues --    0.16590   0.16894   0.16945   0.17187   0.17470
 Alpha virt. eigenvalues --    0.17636   0.17759   0.17849   0.18233   0.18619
 Alpha virt. eigenvalues --    0.18842   0.19101   0.19334   0.19567   0.19649
 Alpha virt. eigenvalues --    0.19814   0.20077   0.20446   0.20712   0.21001
 Alpha virt. eigenvalues --    0.21208   0.21425   0.21582   0.21759   0.21999
 Alpha virt. eigenvalues --    0.22264   0.22445   0.22710   0.22870   0.23128
 Alpha virt. eigenvalues --    0.23174   0.23374   0.23496   0.24079   0.24230
 Alpha virt. eigenvalues --    0.24309   0.24516   0.24630   0.24657   0.24973
 Alpha virt. eigenvalues --    0.25150   0.25392   0.25748   0.25784   0.26174
 Alpha virt. eigenvalues --    0.26254   0.26662   0.26846   0.26948   0.27205
 Alpha virt. eigenvalues --    0.27467   0.27677   0.27833   0.28024   0.28153
 Alpha virt. eigenvalues --    0.28397   0.28553   0.29080   0.29286   0.29400
 Alpha virt. eigenvalues --    0.30001   0.30072   0.30400   0.30700   0.30841
 Alpha virt. eigenvalues --    0.31232   0.31336   0.31889   0.32566   0.32853
 Alpha virt. eigenvalues --    0.33084   0.33290   0.33936   0.34042   0.34929
 Alpha virt. eigenvalues --    0.34999   0.35223   0.35359   0.35509   0.36162
 Alpha virt. eigenvalues --    0.36329   0.36684   0.37116   0.37488   0.37691
 Alpha virt. eigenvalues --    0.38080   0.38281   0.38687   0.38860   0.38945
 Alpha virt. eigenvalues --    0.39382   0.39811   0.40594   0.40872   0.41994
 Alpha virt. eigenvalues --    0.42406   0.42767   0.42920   0.43208   0.43294
 Alpha virt. eigenvalues --    0.43571   0.43922   0.44943   0.45090   0.45502
 Alpha virt. eigenvalues --    0.46083   0.46285   0.46898   0.47408   0.47742
 Alpha virt. eigenvalues --    0.47915   0.48878   0.49582   0.50099   0.50699
 Alpha virt. eigenvalues --    0.51077   0.51343   0.51529   0.51637   0.52521
 Alpha virt. eigenvalues --    0.52960   0.53106   0.53513   0.53831   0.54108
 Alpha virt. eigenvalues --    0.54318   0.54506   0.54930   0.55092   0.55344
 Alpha virt. eigenvalues --    0.55619   0.56110   0.56167   0.56450   0.56918
 Alpha virt. eigenvalues --    0.57111   0.57425   0.57883   0.58439   0.58705
 Alpha virt. eigenvalues --    0.59047   0.59271   0.59768   0.59889   0.60139
 Alpha virt. eigenvalues --    0.60588   0.60791   0.61175   0.61386   0.61449
 Alpha virt. eigenvalues --    0.61903   0.62202   0.62539   0.63003   0.63346
 Alpha virt. eigenvalues --    0.63560   0.64054   0.64451   0.64728   0.64995
 Alpha virt. eigenvalues --    0.65364   0.65635   0.66007   0.66313   0.66352
 Alpha virt. eigenvalues --    0.66781   0.67186   0.67659   0.68026   0.68382
 Alpha virt. eigenvalues --    0.68777   0.69301   0.69828   0.69973   0.70559
 Alpha virt. eigenvalues --    0.71013   0.71242   0.71798   0.72070   0.72655
 Alpha virt. eigenvalues --    0.72994   0.73126   0.74239   0.74736   0.74999
 Alpha virt. eigenvalues --    0.75285   0.75424   0.76118   0.76186   0.76519
 Alpha virt. eigenvalues --    0.76844   0.77570   0.77726   0.77847   0.78083
 Alpha virt. eigenvalues --    0.78434   0.78593   0.78884   0.78919   0.79343
 Alpha virt. eigenvalues --    0.79778   0.79966   0.80324   0.80835   0.81047
 Alpha virt. eigenvalues --    0.81365   0.81864   0.81999   0.82541   0.82688
 Alpha virt. eigenvalues --    0.83090   0.83180   0.84381   0.84451   0.84750
 Alpha virt. eigenvalues --    0.85064   0.85363   0.85814   0.86029   0.86180
 Alpha virt. eigenvalues --    0.86458   0.86507   0.86937   0.87317   0.87566
 Alpha virt. eigenvalues --    0.88020   0.88302   0.88706   0.89007   0.89405
 Alpha virt. eigenvalues --    0.89718   0.90025   0.90447   0.90930   0.91003
 Alpha virt. eigenvalues --    0.91224   0.91741   0.91879   0.92130   0.92775
 Alpha virt. eigenvalues --    0.93007   0.93239   0.93570   0.93853   0.93997
 Alpha virt. eigenvalues --    0.94832   0.94989   0.95347   0.95921   0.96546
 Alpha virt. eigenvalues --    0.96699   0.97077   0.97393   0.98072   0.98225
 Alpha virt. eigenvalues --    0.99249   0.99630   1.00437   1.00587   1.00928
 Alpha virt. eigenvalues --    1.01704   1.02801   1.02841   1.03939   1.04184
 Alpha virt. eigenvalues --    1.04457   1.04778   1.05496   1.05935   1.06155
 Alpha virt. eigenvalues --    1.06636   1.07027   1.08138   1.08309   1.08596
 Alpha virt. eigenvalues --    1.09390   1.09825   1.10143   1.10711   1.11040
 Alpha virt. eigenvalues --    1.11418   1.11745   1.12306   1.12943   1.13412
 Alpha virt. eigenvalues --    1.14003   1.14406   1.14901   1.15391   1.15640
 Alpha virt. eigenvalues --    1.15958   1.16593   1.17845   1.18612   1.18777
 Alpha virt. eigenvalues --    1.19201   1.21102   1.21311   1.21559   1.22038
 Alpha virt. eigenvalues --    1.22295   1.22491   1.23133   1.23922   1.24619
 Alpha virt. eigenvalues --    1.24782   1.25756   1.26001   1.26656   1.27840
 Alpha virt. eigenvalues --    1.28505   1.29184   1.29998   1.30273   1.30672
 Alpha virt. eigenvalues --    1.31264   1.32419   1.32810   1.34404   1.34421
 Alpha virt. eigenvalues --    1.37766   1.38477   1.40377   1.40488   1.40649
 Alpha virt. eigenvalues --    1.41127   1.41892   1.42016   1.42818   1.43183
 Alpha virt. eigenvalues --    1.43954   1.44441   1.45278   1.45451   1.46761
 Alpha virt. eigenvalues --    1.47236   1.48160   1.48450   1.49960   1.50482
 Alpha virt. eigenvalues --    1.50691   1.51201   1.51344   1.51552   1.51995
 Alpha virt. eigenvalues --    1.52419   1.52930   1.53333   1.53471   1.53615
 Alpha virt. eigenvalues --    1.54090   1.54855   1.55169   1.55650   1.56310
 Alpha virt. eigenvalues --    1.56612   1.57284   1.57408   1.57968   1.59072
 Alpha virt. eigenvalues --    1.59344   1.59428   1.60083   1.60598   1.60676
 Alpha virt. eigenvalues --    1.61052   1.61553   1.61702   1.62653   1.62849
 Alpha virt. eigenvalues --    1.63110   1.63845   1.64841   1.65643   1.66072
 Alpha virt. eigenvalues --    1.66315   1.66844   1.67320   1.68290   1.68751
 Alpha virt. eigenvalues --    1.69200   1.70083   1.70221   1.71129   1.71593
 Alpha virt. eigenvalues --    1.71769   1.72528   1.73353   1.75440   1.75557
 Alpha virt. eigenvalues --    1.77520   1.77589   1.78246   1.79086   1.79768
 Alpha virt. eigenvalues --    1.79968   1.80411   1.81043   1.82243   1.82898
 Alpha virt. eigenvalues --    1.83739   1.84197   1.86584   1.86900   1.88991
 Alpha virt. eigenvalues --    1.89140   1.89957   1.90790   1.91532   1.92124
 Alpha virt. eigenvalues --    1.93146   1.93558   1.94815   1.95159   1.96169
 Alpha virt. eigenvalues --    1.96948   1.97940   1.98508   2.00832   2.01227
 Alpha virt. eigenvalues --    2.02062   2.03062   2.05754   2.06275   2.07409
 Alpha virt. eigenvalues --    2.07932   2.08802   2.09045   2.09445   2.09487
 Alpha virt. eigenvalues --    2.11072   2.11330   2.14199   2.14853   2.19275
 Alpha virt. eigenvalues --    2.20026   2.21004   2.21940   2.25618   2.27151
 Alpha virt. eigenvalues --    2.30520   2.31215   2.31612   2.31758   2.37354
 Alpha virt. eigenvalues --    2.37487   2.37813   2.38110   2.38232   2.38290
 Alpha virt. eigenvalues --    2.38572   2.38954   2.39697   2.39972   2.40439
 Alpha virt. eigenvalues --    2.40503   2.40998   2.42219   2.42849   2.43052
 Alpha virt. eigenvalues --    2.43531   2.43643   2.44869   2.45117   2.46392
 Alpha virt. eigenvalues --    2.47091   2.52092   2.53208   2.55494   2.56570
 Alpha virt. eigenvalues --    2.62752   2.63464   2.65636   2.68406   2.69241
 Alpha virt. eigenvalues --    2.69805   2.72544   2.73122   2.73442   2.73557
 Alpha virt. eigenvalues --    2.76791   2.77046   2.79661   2.80001   2.82257
 Alpha virt. eigenvalues --    2.82445   2.94896   2.94953   2.99830   3.00407
 Alpha virt. eigenvalues --    3.02625   3.03816   3.11487   3.11979   3.13210
 Alpha virt. eigenvalues --    3.14348   3.16326   3.17596   3.18857   3.19553
 Alpha virt. eigenvalues --    3.25424   3.26479   3.29406   3.31792   3.36615
 Alpha virt. eigenvalues --    3.37221   3.63229   3.63608   3.77039   3.80853
          Condensed to atoms (all electrons):
 Mulliken charges:
               1
     1  C    0.683816
     2  C   -0.168191
     3  S    0.418409
     4  S    0.250634
     5  C    1.038785
     6  C    1.153085
     7  C    0.880448
     8  N   -1.051210
     9  S    0.583500
    10  C   -1.146028
    11  N   -0.142603
    12  C   -1.241213
    13  N   -0.104044
    14  C   -1.030809
    15  N   -0.130089
    16  C    0.446347
    17  C   -0.310503
    18  S    0.567579
    19  S    0.504026
    20  C    1.289305
    21  C    1.193789
    22  C    0.952794
    23  N   -1.064473
    24  S    0.572404
    25  C   -1.446199
    26  N   -0.089742
    27  C   -1.285316
    28  N   -0.119815
    29  C   -1.054433
    30  N   -0.150252
 Sum of Mulliken charges =  -0.00000
 Mulliken charges with hydrogens summed into heavy atoms:
               1
     1  C    0.683816
     2  C   -0.168191
     3  S    0.418409
     4  S    0.250634
     5  C    1.038785
     6  C    1.153085
     7  C    0.880448
     8  N   -1.051210
     9  S    0.583500
    10  C   -1.146028
    11  N   -0.142603
    12  C   -1.241213
    13  N   -0.104044
    14  C   -1.030809
    15  N   -0.130089
    16  C    0.446347
    17  C   -0.310503
    18  S    0.567579
    19  S    0.504026
    20  C    1.289305
    21  C    1.193789
    22  C    0.952794
    23  N   -1.064473
    24  S    0.572404
    25  C   -1.446199
    26  N   -0.089742
    27  C   -1.285316
    28  N   -0.119815
    29  C   -1.054433
    30  N   -0.150252
 Electronic spatial extent (au):  <R**2>=          29432.0745
 Charge=             -0.0000 electrons
 Dipole moment (field-independent basis, Debye):
    X=             -5.5822    Y=             -0.0773    Z=              1.9040  Tot=              5.8984

 Test job not archived.
 1\1\GINC-CHIMERA-NODE41\SP\RM05\Gen\C16N8S6\CONNORNM\19-Jan-2019\0\\#T
  M05/Gen test Massage SCF=(fermi,maxcyc=60)\\M05 opt\\0,1\C,0,-0.22616
 936,-0.8234875,-0.55841264\C,0,-0.81625718,-0.83082314,0.73679746\S,0,
 0.13008831,0.61679355,-1.50031901\S,0,-1.26269845,0.6298173,1.6322348\
 C,0,0.51562935,1.76265649,-0.20321519\C,0,-0.03941378,1.76602037,1.037
 57482\C,0,-0.04213204,-2.12098549,-0.99192438\N,0,-1.0709015,-1.997667
 13,1.2766969\S,0,-0.63513034,-3.20845464,0.22075466\C,0,1.4632483,2.75
 257586,-0.59458154\N,0,2.22002664,3.55230075,-0.96730084\C,0,0.3070546
 8,2.76444425,1.99520278\N,0,0.53744441,3.57454462,2.79619223\C,0,0.500
 86936,-2.56867347,-2.22070157\N,0,0.93541119,-2.9539,-3.22761261\C,0,-
 0.93708534,0.02212925,7.35901041\C,0,-0.19278016,1.21583473,7.57558296
 \S,0,-0.77124865,-1.03535496,5.96518762\S,0,1.05842886,1.81822565,6.47
 731637\C,0,0.95606618,-0.83922502,5.61584737\C,0,1.67852662,0.29413192
 ,5.81881782\C,0,-1.85856063,-0.14078322,8.37372516\N,0,-0.48309439,1.9
 2249051,8.64057841\S,0,-1.73230001,1.19754961,9.46814285\C,0,1.5453732
 ,-2.0009599,5.03776524\N,0,1.97499485,-2.96328396,4.54730558\C,0,3.056
 7014,0.36186938,5.45827951\N,0,4.17287494,0.47148808,5.15321148\C,0,-2
 .8046789,-1.18059331,8.54350044\N,0,-3.59355649,-2.02094362,8.6937649\
 \Version=AS64L-G09RevD.01\HF=-3448.3604164\RMSD=8.658e-09\Dipole=-2.19
 61903,-0.030405,0.7490719\Quadrupole=-8.6086746,-8.6653292,17.2740038,
 -7.9926101,-2.5023225,7.9869527\PG=C01 [X(C16N8S6)]\\@


 MICHAEL FARADAY, ASKED BY A POLITICIAN WHAT GOOD
 HIS ELECTRICAL DISCOVERIES WERE, REPLIED 
 "AT PRESENT I DO NOT KNOW, BUT ONE DAY YOU WILL BE
 ABLE TO TAX THEM."
 Job cpu time:       0 days 10 hours  8 minutes 45.9 seconds.
 File lengths (MBytes):  RWF=    225 Int=      0 D2E=      0 Chk=     19 Scr=      1
 Normal termination of Gaussian 09 at Sat Jan 19 14:12:53 2019.
