 Entering Gaussian System, Link 0=/data/szalewicgrp/connornm/opt/Gaussian/g09-M05-par/g09/g09
 AtFile(1): blind-aug.gbs
 Initial command:
 /data/szalewicgrp/connornm/opt/Gaussian/g09-M05-par/g09/l1.exe "/scratch/local/Gau-29435.inp" -scrdir="/scratch/local/"
 Entering Link 1 = /data/szalewicgrp/connornm/opt/Gaussian/g09-M05-par/g09/l1.exe PID=     29436.
  
 Copyright (c) 1988,1990,1992,1993,1995,1998,2003,2009,2013,
            Gaussian, Inc.  All Rights Reserved.
  
 This is part of the Gaussian(R) 09 program.  It is based on
 the Gaussian(R) 03 system (copyright 2003, Gaussian, Inc.),
 the Gaussian(R) 98 system (copyright 1998, Gaussian, Inc.),
 the Gaussian(R) 94 system (copyright 1995, Gaussian, Inc.),
 the Gaussian 92(TM) system (copyright 1992, Gaussian, Inc.),
 the Gaussian 90(TM) system (copyright 1990, Gaussian, Inc.),
 the Gaussian 88(TM) system (copyright 1988, Gaussian, Inc.),
 the Gaussian 86(TM) system (copyright 1986, Carnegie Mellon
 University), and the Gaussian 82(TM) system (copyright 1983,
 Carnegie Mellon University). Gaussian is a federally registered
 trademark of Gaussian, Inc.
  
 This software contains proprietary and confidential information,
 including trade secrets, belonging to Gaussian, Inc.
  
 This software is provided under written license and may be
 used, copied, transmitted, or stored only in accord with that
 written license.
  
 The following legend is applicable only to US Government
 contracts under FAR:
  
                    RESTRICTED RIGHTS LEGEND
  
 Use, reproduction and disclosure by the US Government is
 subject to restrictions as set forth in subparagraphs (a)
 and (c) of the Commercial Computer Software - Restricted
 Rights clause in FAR 52.227-19.
  
 Gaussian, Inc.
 340 Quinnipiac St., Bldg. 40, Wallingford CT 06492
  
  
 ---------------------------------------------------------------
 Warning -- This program may not be used in any manner that
 competes with the business of Gaussian, Inc. or will provide
 assistance to any competitor of Gaussian, Inc.  The licensee
 of this program is prohibited from giving any competitor of
 Gaussian, Inc. access to this program.  By using this program,
 the user acknowledges that Gaussian, Inc. is engaged in the
 business of creating and licensing software in the field of
 computational chemistry and represents and warrants to the
 licensee that it is not a competitor of Gaussian, Inc. and that
 it will not use this program in any manner prohibited above.
 ---------------------------------------------------------------
  

 Cite this work as:
 Gaussian 09, Revision D.01,
 M. J. Frisch, G. W. Trucks, H. B. Schlegel, G. E. Scuseria, 
 M. A. Robb, J. R. Cheeseman, G. Scalmani, V. Barone, B. Mennucci, 
 G. A. Petersson, H. Nakatsuji, M. Caricato, X. Li, H. P. Hratchian, 
 A. F. Izmaylov, J. Bloino, G. Zheng, J. L. Sonnenberg, M. Hada, 
 M. Ehara, K. Toyota, R. Fukuda, J. Hasegawa, M. Ishida, T. Nakajima, 
 Y. Honda, O. Kitao, H. Nakai, T. Vreven, J. A. Montgomery, Jr., 
 J. E. Peralta, F. Ogliaro, M. Bearpark, J. J. Heyd, E. Brothers, 
 K. N. Kudin, V. N. Staroverov, T. Keith, R. Kobayashi, J. Normand, 
 K. Raghavachari, A. Rendell, J. C. Burant, S. S. Iyengar, J. Tomasi, 
 M. Cossi, N. Rega, J. M. Millam, M. Klene, J. E. Knox, J. B. Cross, 
 V. Bakken, C. Adamo, J. Jaramillo, R. Gomperts, R. E. Stratmann, 
 O. Yazyev, A. J. Austin, R. Cammi, C. Pomelli, J. W. Ochterski, 
 R. L. Martin, K. Morokuma, V. G. Zakrzewski, G. A. Voth, 
 P. Salvador, J. J. Dannenberg, S. Dapprich, A. D. Daniels, 
 O. Farkas, J. B. Foresman, J. V. Ortiz, J. Cioslowski, 
 and D. J. Fox, Gaussian, Inc., Wallingford CT, 2013.
 
 ******************************************
 Gaussian 09:  AS64L-G09RevD.01 24-Apr-2013
                19-Jan-2019 
 ******************************************
 %Chk=BLIND01353_mB
 %Mem=1GB
 %NProcShared=48
 Will use up to   48 processors via shared memory.
 ---------------------------------------------
 #T M05/Gen test Massage SCF=(fermi,maxcyc=60)
 ---------------------------------------------
 -------
 M05 opt
 -------
 Symbolic Z-matrix:
 Charge =  0 Multiplicity = 1
 6                    -0.85475  -0.25909   8.70567 
 6                    -1.00426  -0.20602   10.12012 
 16                    0.25354   0.73049   7.76709 
 16                   -0.06302   0.85641   11.17837 
 6                     1.58726   0.90459   8.92251 
 6                     1.45835   0.95553   10.2747 
 6                    -1.76246  -1.15415   8.17629 
 7                    -1.92179  -0.9716    10.65853 
 16                   -2.71785  -1.81373   9.46354 
 6                     2.85894   1.03782   8.29309 
 7                     3.86989   1.16645   7.73395 
 6                     2.59493   1.14589   11.11488 
 7                     3.4883    1.32854   11.83561 
 6                    -1.96354  -1.50307   6.81873 
 7                    -2.14857  -1.79443   5.70879 
 
                    Distance matrix (angstroms):
                    1          2          3          4          5
     1  C    0.000000
     2  C    1.423315   0.000000
     3  S    1.757418   2.827694   0.000000
     4  S    2.825849   1.770477   3.428253   0.000000
     5  C    2.713774   3.063280   1.773167   2.795470   0.000000
     6  C    3.047557   2.727187   2.791121   1.772288   1.359281
     7  C    1.380327   2.291783   2.789903   3.992857   4.001979
     8  N    2.336642   1.310672   3.998700   2.658358   4.341342
     9  S    2.542129   2.439721   4.263822   4.137445   5.120151
    10  C    3.955208   4.450782   2.675676   4.110426   1.425163
    11  N    5.029770   5.597745   3.642685   5.237162   2.586817
    12  C    4.436049   3.971317   4.106384   2.674416   2.424897
    13  N    5.583831   5.047859   5.232040   3.642352   3.504263
    14  C    2.517432   3.674472   3.286888   5.309014   4.778168
    15  N    3.607292   4.826214   4.047461   6.425950   5.618639
                    6          7          8          9         10
     6  C    0.000000
     7  C    4.384939   0.000000
     8  N    3.909794   2.494036   0.000000
     9  S    5.076167   1.733444   1.664607   0.000000
    10  C    2.428007   5.116215   5.699860   6.371958   0.000000
    11  N    3.509330   6.107712   6.831389   7.434461   1.162408
    12  C    1.426163   5.736923   5.009263   6.301738   2.836178
    13  N    2.587713   6.864751   5.995430   7.349618   3.609722
    14  C    5.449573   1.416040   3.876636   2.767765   5.646781
    15  N    6.435818   2.578302   5.022796   3.797715   6.306769
                   11         12         13         14         15
    11  N    0.000000
    12  C    3.613393   0.000000
    13  N    4.122555   1.162293   0.000000
    14  C    6.480188   6.800997   7.931563   0.000000
    15  N    7.006418   7.769948   8.891861   1.162367   0.000000
 Symmetry turned off by external request.
 Framework group  C1[X(C8N4S3)]
 Deg. of freedom    39
 Rotational constants (GHZ):      0.7722167      0.3388923      0.2463240
   357 basis functions,   759 primitive gaussians,   387 cartesian basis functions
    62 alpha electrons       62 beta electrons
       nuclear repulsion energy      1166.1400392553 Hartrees.
 IMHF & INEx in M05                  599485                  400514
 NAtoms=   15 NActive=   15 NUniq=   15 SFac= 1.00D+00 NAtFMM=   60 NAOKFM=F Big=F
 PrsmSu:  requested number of processors reduced to:  34 ShMem   1 Linda.
 ExpMin= 3.99D-02 ExpMax= 1.11D+05 ExpMxC= 1.07D+03 IAcc=3 IRadAn=         5 AccDes= 0.00D+00
 Harris functional with IExCor= 1009 and IRadAn=       5 diagonalized for initial guess.
 HarFok:  IExCor= 1009 AccDes= 0.00D+00 IRadAn=         5 IDoV= 1 UseB2=F ITyADJ=14
 ICtDFT=  3500011 ScaDFX=  1.000000  1.000000  1.000000  1.000000
 FoFCou: FMM=F IPFlag=           0 FMFlag=      100000 FMFlg1=           0
         NFxFlg=           0 DoJE=T BraDBF=F KetDBF=T FulRan=T
         wScrn=  0.000000 ICntrl=     500 IOpCl=  0 I1Cent=   200000004 NGrid=           0
         NMat0=    1 NMatS0=      1 NMatT0=    0 NMatD0=    1 NMtDS0=    0 NMtDT0=    0
 Symmetry not used in FoFCou.
 SCF Done:  E(RM05) =  -1724.76148943     A.U. after   17 cycles
            NFock= 17  Conv=0.52D-08     -V/T= 2.0061

 **********************************************************************

            Population analysis using the SCF density.

 **********************************************************************

 Alpha  occ. eigenvalues --  -90.56429 -90.53636 -90.53183 -15.08621 -15.05416
 Alpha  occ. eigenvalues --  -15.04970 -15.04934 -10.89945 -10.89827 -10.89735
 Alpha  occ. eigenvalues --  -10.88752 -10.87414 -10.84946 -10.84332 -10.84311
 Alpha  occ. eigenvalues --   -8.57525  -8.55035  -8.54610  -6.40062  -6.39712
 Alpha  occ. eigenvalues --   -6.39400  -6.37597  -6.37282  -6.37163  -6.36853
 Alpha  occ. eigenvalues --   -6.36822  -6.36393  -1.20533  -1.12896  -1.12139
 Alpha  occ. eigenvalues --   -1.11338  -1.07643  -1.03801  -0.98824  -0.97396
 Alpha  occ. eigenvalues --   -0.88003  -0.84555  -0.82236  -0.73687  -0.71296
 Alpha  occ. eigenvalues --   -0.67838  -0.64612  -0.59530  -0.57258  -0.55386
 Alpha  occ. eigenvalues --   -0.53384  -0.52647  -0.52243  -0.51890  -0.50883
 Alpha  occ. eigenvalues --   -0.50387  -0.49356  -0.48216  -0.46804  -0.46075
 Alpha  occ. eigenvalues --   -0.45933  -0.45296  -0.43720  -0.43113  -0.39488
 Alpha  occ. eigenvalues --   -0.37627  -0.33119
 Alpha virt. eigenvalues --   -0.09329  -0.08268  -0.02098  -0.01262  -0.00502
 Alpha virt. eigenvalues --   -0.00361   0.00154   0.01254   0.02018   0.02229
 Alpha virt. eigenvalues --    0.02393   0.02957   0.03190   0.04002   0.04272
 Alpha virt. eigenvalues --    0.04485   0.05427   0.06005   0.06298   0.07066
 Alpha virt. eigenvalues --    0.07270   0.07524   0.07708   0.08289   0.08487
 Alpha virt. eigenvalues --    0.09376   0.10093   0.10392   0.10522   0.10812
 Alpha virt. eigenvalues --    0.11289   0.11393   0.11979   0.12525   0.13229
 Alpha virt. eigenvalues --    0.13487   0.13936   0.14456   0.15073   0.15188
 Alpha virt. eigenvalues --    0.15905   0.16282   0.16676   0.16816   0.17186
 Alpha virt. eigenvalues --    0.17354   0.17843   0.18605   0.19048   0.19553
 Alpha virt. eigenvalues --    0.19866   0.20239   0.20682   0.20930   0.21268
 Alpha virt. eigenvalues --    0.21881   0.22204   0.22581   0.22820   0.23613
 Alpha virt. eigenvalues --    0.23754   0.24120   0.24369   0.24700   0.25261
 Alpha virt. eigenvalues --    0.25695   0.25853   0.26229   0.26624   0.26741
 Alpha virt. eigenvalues --    0.27079   0.28334   0.29192   0.29663   0.30370
 Alpha virt. eigenvalues --    0.30711   0.32417   0.33455   0.34154   0.34713
 Alpha virt. eigenvalues --    0.34954   0.35469   0.36122   0.36935   0.37594
 Alpha virt. eigenvalues --    0.38151   0.39580   0.40727   0.41169   0.42050
 Alpha virt. eigenvalues --    0.42113   0.43487   0.44133   0.45734   0.45986
 Alpha virt. eigenvalues --    0.46963   0.48563   0.49575   0.50243   0.50603
 Alpha virt. eigenvalues --    0.51525   0.51856   0.53527   0.54168   0.54424
 Alpha virt. eigenvalues --    0.54703   0.55468   0.55727   0.55838   0.56450
 Alpha virt. eigenvalues --    0.57777   0.58143   0.58557   0.59217   0.60312
 Alpha virt. eigenvalues --    0.60553   0.61102   0.61584   0.62107   0.62710
 Alpha virt. eigenvalues --    0.63723   0.64716   0.64956   0.66007   0.66562
 Alpha virt. eigenvalues --    0.67689   0.68193   0.68806   0.70106   0.70416
 Alpha virt. eigenvalues --    0.71049   0.72864   0.73470   0.73853   0.75375
 Alpha virt. eigenvalues --    0.75564   0.76455   0.77062   0.77553   0.77845
 Alpha virt. eigenvalues --    0.78246   0.79256   0.79761   0.79881   0.81109
 Alpha virt. eigenvalues --    0.81537   0.82545   0.83275   0.83956   0.84870
 Alpha virt. eigenvalues --    0.85698   0.85939   0.87124   0.87249   0.88404
 Alpha virt. eigenvalues --    0.88458   0.89345   0.89666   0.89829   0.90730
 Alpha virt. eigenvalues --    0.91174   0.91724   0.92830   0.93719   0.94367
 Alpha virt. eigenvalues --    0.95434   0.95568   0.97325   0.98745   0.99312
 Alpha virt. eigenvalues --    0.99846   1.01204   1.02849   1.03575   1.04752
 Alpha virt. eigenvalues --    1.05761   1.06750   1.08037   1.08539   1.09636
 Alpha virt. eigenvalues --    1.10233   1.11403   1.13198   1.13606   1.14402
 Alpha virt. eigenvalues --    1.15322   1.17099   1.18343   1.20284   1.20632
 Alpha virt. eigenvalues --    1.21605   1.22699   1.23935   1.24220   1.26558
 Alpha virt. eigenvalues --    1.27344   1.29758   1.30249   1.32272   1.34124
 Alpha virt. eigenvalues --    1.37311   1.40081   1.40255   1.41567   1.42728
 Alpha virt. eigenvalues --    1.43616   1.45023   1.46461   1.47275   1.49371
 Alpha virt. eigenvalues --    1.49821   1.50472   1.51641   1.51870   1.52334
 Alpha virt. eigenvalues --    1.53715   1.54192   1.55432   1.56136   1.56451
 Alpha virt. eigenvalues --    1.56789   1.58488   1.59725   1.60388   1.60516
 Alpha virt. eigenvalues --    1.62132   1.63284   1.64920   1.66028   1.67547
 Alpha virt. eigenvalues --    1.68614   1.69175   1.70471   1.71325   1.74151
 Alpha virt. eigenvalues --    1.76824   1.77079   1.79017   1.79379   1.81041
 Alpha virt. eigenvalues --    1.82959   1.85915   1.88149   1.89702   1.90607
 Alpha virt. eigenvalues --    1.91370   1.94487   1.95007   1.97394   2.00539
 Alpha virt. eigenvalues --    2.00828   2.05447   2.07038   2.08350   2.08473
 Alpha virt. eigenvalues --    2.10892   2.13937   2.18604   2.20231   2.24594
 Alpha virt. eigenvalues --    2.27649   2.30685   2.37026   2.37402   2.38002
 Alpha virt. eigenvalues --    2.38279   2.39370   2.39930   2.40470   2.42149
 Alpha virt. eigenvalues --    2.42559   2.43756   2.45056   2.51018   2.54996
 Alpha virt. eigenvalues --    2.61155   2.64126   2.68329   2.71898   2.73264
 Alpha virt. eigenvalues --    2.76309   2.78780   2.81839   2.94681   2.99730
 Alpha virt. eigenvalues --    3.01879   3.09943   3.11452   3.15940   3.17849
 Alpha virt. eigenvalues --    3.24293   3.27128   3.35294   3.59301   3.74890
          Condensed to atoms (all electrons):
 Mulliken charges:
               1
     1  C    0.620140
     2  C   -0.109400
     3  S    0.374056
     4  S    0.296918
     5  C    1.040941
     6  C    1.130253
     7  C    0.787563
     8  N   -1.083261
     9  S    0.557178
    10  C   -1.130256
    11  N   -0.168013
    12  C   -1.099493
    13  N   -0.180504
    14  C   -0.853174
    15  N   -0.182947
 Sum of Mulliken charges =  -0.00000
 Mulliken charges with hydrogens summed into heavy atoms:
               1
     1  C    0.620140
     2  C   -0.109400
     3  S    0.374056
     4  S    0.296918
     5  C    1.040941
     6  C    1.130253
     7  C    0.787563
     8  N   -1.083261
     9  S    0.557178
    10  C   -1.130256
    11  N   -0.168013
    12  C   -1.099493
    13  N   -0.180504
    14  C   -0.853174
    15  N   -0.182947
 Electronic spatial extent (au):  <R**2>=          41467.4471
 Charge=             -0.0000 electrons
 Dipole moment (field-independent basis, Debye):
    X=             -4.5064    Y=             -0.4145    Z=              1.2106  Tot=              4.6845

 Test job not archived.
 1\1\GINC-CHIMERA-NODE47\SP\RM05\Gen\C8N4S3\CONNORNM\19-Jan-2019\0\\#T 
 M05/Gen test Massage SCF=(fermi,maxcyc=60)\\M05 opt\\0,1\C,0,-0.854748
 91,-0.25909076,8.70567242\C,0,-1.00425935,-0.20601593,10.12011801\S,0,
 0.25353607,0.73049474,7.76708753\S,0,-0.06301569,0.85640971,11.1783715
 1\C,0,1.58725941,0.90458837,8.9225076\C,0,1.45835229,0.9555332,10.2747
 0272\C,0,-1.76245841,-1.15414711,8.17629464\N,0,-1.9217855,-0.9715975,
 10.65853295\S,0,-2.71784765,-1.81373476,9.46354057\C,0,2.85893852,1.03
 781592,8.29308539\N,0,3.86988805,1.1664461,7.73395361\C,0,2.59492962,1
 .14588927,11.11488036\N,0,3.48830301,1.32853744,11.83560901\C,0,-1.963
 53937,-1.50307217,6.81872837\N,0,-2.14856896,-1.79442612,5.70878565\\V
 ersion=AS64L-G09RevD.01\HF=-1724.7614894\RMSD=5.156e-09\Dipole=-1.7729
 409,-0.1630695,0.4763063\Quadrupole=-10.8686538,4.7783653,6.0902886,-4
 .3370926,-35.7346427,-6.8681612\PG=C01 [X(C8N4S3)]\\@


 Everything starts as somebody's daydream.
                           -- Larry Niven
 Job cpu time:       0 days  1 hours 53 minutes 57.6 seconds.
 File lengths (MBytes):  RWF=     58 Int=      0 D2E=      0 Chk=      6 Scr=      1
 Normal termination of Gaussian 09 at Sat Jan 19 10:43:20 2019.
