 Entering Gaussian System, Link 0=/data/szalewicgrp/connornm/opt/Gaussian/g09-M05-par/g09/g09
 AtFile(1): blind-aug.gbs
 Initial command:
 /data/szalewicgrp/connornm/opt/Gaussian/g09-M05-par/g09/l1.exe "/scratch/local/Gau-32782.inp" -scrdir="/scratch/local/"
 Entering Link 1 = /data/szalewicgrp/connornm/opt/Gaussian/g09-M05-par/g09/l1.exe PID=     32783.
  
 Copyright (c) 1988,1990,1992,1993,1995,1998,2003,2009,2013,
            Gaussian, Inc.  All Rights Reserved.
  
 This is part of the Gaussian(R) 09 program.  It is based on
 the Gaussian(R) 03 system (copyright 2003, Gaussian, Inc.),
 the Gaussian(R) 98 system (copyright 1998, Gaussian, Inc.),
 the Gaussian(R) 94 system (copyright 1995, Gaussian, Inc.),
 the Gaussian 92(TM) system (copyright 1992, Gaussian, Inc.),
 the Gaussian 90(TM) system (copyright 1990, Gaussian, Inc.),
 the Gaussian 88(TM) system (copyright 1988, Gaussian, Inc.),
 the Gaussian 86(TM) system (copyright 1986, Carnegie Mellon
 University), and the Gaussian 82(TM) system (copyright 1983,
 Carnegie Mellon University). Gaussian is a federally registered
 trademark of Gaussian, Inc.
  
 This software contains proprietary and confidential information,
 including trade secrets, belonging to Gaussian, Inc.
  
 This software is provided under written license and may be
 used, copied, transmitted, or stored only in accord with that
 written license.
  
 The following legend is applicable only to US Government
 contracts under FAR:
  
                    RESTRICTED RIGHTS LEGEND
  
 Use, reproduction and disclosure by the US Government is
 subject to restrictions as set forth in subparagraphs (a)
 and (c) of the Commercial Computer Software - Restricted
 Rights clause in FAR 52.227-19.
  
 Gaussian, Inc.
 340 Quinnipiac St., Bldg. 40, Wallingford CT 06492
  
  
 ---------------------------------------------------------------
 Warning -- This program may not be used in any manner that
 competes with the business of Gaussian, Inc. or will provide
 assistance to any competitor of Gaussian, Inc.  The licensee
 of this program is prohibited from giving any competitor of
 Gaussian, Inc. access to this program.  By using this program,
 the user acknowledges that Gaussian, Inc. is engaged in the
 business of creating and licensing software in the field of
 computational chemistry and represents and warrants to the
 licensee that it is not a competitor of Gaussian, Inc. and that
 it will not use this program in any manner prohibited above.
 ---------------------------------------------------------------
  

 Cite this work as:
 Gaussian 09, Revision D.01,
 M. J. Frisch, G. W. Trucks, H. B. Schlegel, G. E. Scuseria, 
 M. A. Robb, J. R. Cheeseman, G. Scalmani, V. Barone, B. Mennucci, 
 G. A. Petersson, H. Nakatsuji, M. Caricato, X. Li, H. P. Hratchian, 
 A. F. Izmaylov, J. Bloino, G. Zheng, J. L. Sonnenberg, M. Hada, 
 M. Ehara, K. Toyota, R. Fukuda, J. Hasegawa, M. Ishida, T. Nakajima, 
 Y. Honda, O. Kitao, H. Nakai, T. Vreven, J. A. Montgomery, Jr., 
 J. E. Peralta, F. Ogliaro, M. Bearpark, J. J. Heyd, E. Brothers, 
 K. N. Kudin, V. N. Staroverov, T. Keith, R. Kobayashi, J. Normand, 
 K. Raghavachari, A. Rendell, J. C. Burant, S. S. Iyengar, J. Tomasi, 
 M. Cossi, N. Rega, J. M. Millam, M. Klene, J. E. Knox, J. B. Cross, 
 V. Bakken, C. Adamo, J. Jaramillo, R. Gomperts, R. E. Stratmann, 
 O. Yazyev, A. J. Austin, R. Cammi, C. Pomelli, J. W. Ochterski, 
 R. L. Martin, K. Morokuma, V. G. Zakrzewski, G. A. Voth, 
 P. Salvador, J. J. Dannenberg, S. Dapprich, A. D. Daniels, 
 O. Farkas, J. B. Foresman, J. V. Ortiz, J. Cioslowski, 
 and D. J. Fox, Gaussian, Inc., Wallingford CT, 2013.
 
 ******************************************
 Gaussian 09:  AS64L-G09RevD.01 24-Apr-2013
                19-Jan-2019 
 ******************************************
 %Chk=BLIND01687_mB
 %Mem=1GB
 %NProcShared=48
 Will use up to   48 processors via shared memory.
 ---------------------------------------------
 #T M05/Gen test Massage SCF=(fermi,maxcyc=60)
 ---------------------------------------------
 -------
 M05 opt
 -------
 Symbolic Z-matrix:
 Charge =  0 Multiplicity = 1
 6                     0.40686   0.05741   12.30402 
 6                     1.14242   0.76892   13.29323 
 16                   -0.5395   -1.39446   12.59554 
 16                    1.19718   0.31832   15.00453 
 6                    -1.09807  -1.08794   14.25028 
 6                    -0.40644  -0.4095    15.2037 
 6                     0.60746   0.63931   11.06853 
 7                     1.84587   1.80079   12.89541 
 16                    1.69488   1.9774    11.2471 
 6                    -2.36718  -1.67303   14.52977 
 7                    -3.39228  -2.18808   14.71709 
 6                    -0.92737  -0.25929   16.5228 
 7                    -1.29937  -0.13759   17.61721 
 6                     0.07718   0.24707   9.81549 
 7                    -0.34151  -0.06618   8.77738 
 
                    Distance matrix (angstroms):
                    1          2          3          4          5
     1  C    0.000000
     2  C    1.423315   0.000000
     3  S    1.757418   2.827694   0.000000
     4  S    2.825849   1.770477   3.428253   0.000000
     5  C    2.713774   3.063280   1.773167   2.795470   0.000000
     6  C    3.047557   2.727187   2.791121   1.772288   1.359281
     7  C    1.380327   2.291783   2.789903   3.992857   4.001979
     8  N    2.336642   1.310672   3.998700   2.658358   4.341342
     9  S    2.542129   2.439721   4.263822   4.137445   5.120151
    10  C    3.955208   4.450782   2.675676   4.110426   1.425163
    11  N    5.029770   5.597745   3.642685   5.237162   2.586817
    12  C    4.436049   3.971317   4.106384   2.674416   2.424897
    13  N    5.583831   5.047859   5.232040   3.642352   3.504263
    14  C    2.517432   3.674472   3.286888   5.309014   4.778168
    15  N    3.607292   4.826214   4.047461   6.425950   5.618639
                    6          7          8          9         10
     6  C    0.000000
     7  C    4.384939   0.000000
     8  N    3.909794   2.494036   0.000000
     9  S    5.076167   1.733444   1.664607   0.000000
    10  C    2.428007   5.116215   5.699860   6.371958   0.000000
    11  N    3.509330   6.107712   6.831389   7.434461   1.162408
    12  C    1.426163   5.736923   5.009263   6.301738   2.836178
    13  N    2.587713   6.864751   5.995430   7.349618   3.609722
    14  C    5.449573   1.416040   3.876636   2.767765   5.646781
    15  N    6.435818   2.578302   5.022796   3.797715   6.306769
                   11         12         13         14         15
    11  N    0.000000
    12  C    3.613393   0.000000
    13  N    4.122555   1.162293   0.000000
    14  C    6.480188   6.800997   7.931563   0.000000
    15  N    7.006418   7.769948   8.891861   1.162367   0.000000
 Symmetry turned off by external request.
 Framework group  C1[X(C8N4S3)]
 Deg. of freedom    39
 Rotational constants (GHZ):      0.7722167      0.3388923      0.2463240
   357 basis functions,   759 primitive gaussians,   387 cartesian basis functions
    62 alpha electrons       62 beta electrons
       nuclear repulsion energy      1166.1400389535 Hartrees.
 IMHF & INEx in M05                  599485                  400514
 NAtoms=   15 NActive=   15 NUniq=   15 SFac= 1.00D+00 NAtFMM=   60 NAOKFM=F Big=F
 PrsmSu:  requested number of processors reduced to:  34 ShMem   1 Linda.
 ExpMin= 3.99D-02 ExpMax= 1.11D+05 ExpMxC= 1.07D+03 IAcc=3 IRadAn=         5 AccDes= 0.00D+00
 Harris functional with IExCor= 1009 and IRadAn=       5 diagonalized for initial guess.
 HarFok:  IExCor= 1009 AccDes= 0.00D+00 IRadAn=         5 IDoV= 1 UseB2=F ITyADJ=14
 ICtDFT=  3500011 ScaDFX=  1.000000  1.000000  1.000000  1.000000
 FoFCou: FMM=F IPFlag=           0 FMFlag=      100000 FMFlg1=           0
         NFxFlg=           0 DoJE=T BraDBF=F KetDBF=T FulRan=T
         wScrn=  0.000000 ICntrl=     500 IOpCl=  0 I1Cent=   200000004 NGrid=           0
         NMat0=    1 NMatS0=      1 NMatT0=    0 NMatD0=    1 NMtDS0=    0 NMtDT0=    0
 Symmetry not used in FoFCou.
 SCF Done:  E(RM05) =  -1724.76147683     A.U. after   17 cycles
            NFock= 17  Conv=0.51D-08     -V/T= 2.0061

 **********************************************************************

            Population analysis using the SCF density.

 **********************************************************************

 Alpha  occ. eigenvalues --  -90.56429 -90.53635 -90.53183 -15.08622 -15.05417
 Alpha  occ. eigenvalues --  -15.04969 -15.04934 -10.89944 -10.89826 -10.89736
 Alpha  occ. eigenvalues --  -10.88752 -10.87414 -10.84947 -10.84332 -10.84310
 Alpha  occ. eigenvalues --   -8.57524  -8.55034  -8.54610  -6.40062  -6.39711
 Alpha  occ. eigenvalues --   -6.39400  -6.37596  -6.37281  -6.37164  -6.36854
 Alpha  occ. eigenvalues --   -6.36821  -6.36393  -1.20533  -1.12895  -1.12139
 Alpha  occ. eigenvalues --   -1.11337  -1.07643  -1.03801  -0.98824  -0.97396
 Alpha  occ. eigenvalues --   -0.88002  -0.84555  -0.82236  -0.73686  -0.71296
 Alpha  occ. eigenvalues --   -0.67839  -0.64612  -0.59530  -0.57258  -0.55386
 Alpha  occ. eigenvalues --   -0.53385  -0.52648  -0.52242  -0.51890  -0.50883
 Alpha  occ. eigenvalues --   -0.50387  -0.49356  -0.48215  -0.46805  -0.46074
 Alpha  occ. eigenvalues --   -0.45933  -0.45296  -0.43720  -0.43113  -0.39488
 Alpha  occ. eigenvalues --   -0.37627  -0.33119
 Alpha virt. eigenvalues --   -0.09329  -0.08269  -0.02099  -0.01262  -0.00504
 Alpha virt. eigenvalues --   -0.00361   0.00154   0.01255   0.02019   0.02228
 Alpha virt. eigenvalues --    0.02392   0.02956   0.03187   0.04003   0.04277
 Alpha virt. eigenvalues --    0.04486   0.05427   0.06007   0.06299   0.07068
 Alpha virt. eigenvalues --    0.07268   0.07525   0.07707   0.08289   0.08491
 Alpha virt. eigenvalues --    0.09377   0.10095   0.10392   0.10525   0.10811
 Alpha virt. eigenvalues --    0.11288   0.11391   0.11977   0.12526   0.13229
 Alpha virt. eigenvalues --    0.13488   0.13940   0.14457   0.15077   0.15191
 Alpha virt. eigenvalues --    0.15900   0.16272   0.16677   0.16812   0.17189
 Alpha virt. eigenvalues --    0.17357   0.17835   0.18615   0.19048   0.19562
 Alpha virt. eigenvalues --    0.19858   0.20238   0.20684   0.20950   0.21271
 Alpha virt. eigenvalues --    0.21881   0.22203   0.22584   0.22822   0.23612
 Alpha virt. eigenvalues --    0.23751   0.24113   0.24368   0.24702   0.25258
 Alpha virt. eigenvalues --    0.25694   0.25851   0.26231   0.26624   0.26746
 Alpha virt. eigenvalues --    0.27075   0.28335   0.29194   0.29663   0.30370
 Alpha virt. eigenvalues --    0.30711   0.32419   0.33455   0.34152   0.34716
 Alpha virt. eigenvalues --    0.34950   0.35470   0.36123   0.36936   0.37596
 Alpha virt. eigenvalues --    0.38153   0.39581   0.40727   0.41168   0.42049
 Alpha virt. eigenvalues --    0.42119   0.43487   0.44135   0.45736   0.45979
 Alpha virt. eigenvalues --    0.46960   0.48556   0.49573   0.50232   0.50602
 Alpha virt. eigenvalues --    0.51526   0.51858   0.53526   0.54166   0.54426
 Alpha virt. eigenvalues --    0.54706   0.55463   0.55736   0.55836   0.56451
 Alpha virt. eigenvalues --    0.57769   0.58138   0.58554   0.59214   0.60310
 Alpha virt. eigenvalues --    0.60552   0.61101   0.61587   0.62103   0.62710
 Alpha virt. eigenvalues --    0.63716   0.64714   0.64951   0.66008   0.66557
 Alpha virt. eigenvalues --    0.67691   0.68189   0.68808   0.70108   0.70414
 Alpha virt. eigenvalues --    0.71048   0.72862   0.73467   0.73855   0.75371
 Alpha virt. eigenvalues --    0.75563   0.76458   0.77062   0.77552   0.77843
 Alpha virt. eigenvalues --    0.78246   0.79254   0.79761   0.79880   0.81109
 Alpha virt. eigenvalues --    0.81536   0.82545   0.83275   0.83955   0.84869
 Alpha virt. eigenvalues --    0.85698   0.85940   0.87123   0.87245   0.88406
 Alpha virt. eigenvalues --    0.88458   0.89345   0.89663   0.89828   0.90730
 Alpha virt. eigenvalues --    0.91173   0.91722   0.92830   0.93724   0.94370
 Alpha virt. eigenvalues --    0.95434   0.95568   0.97325   0.98747   0.99312
 Alpha virt. eigenvalues --    0.99849   1.01209   1.02846   1.03574   1.04750
 Alpha virt. eigenvalues --    1.05757   1.06747   1.08037   1.08544   1.09634
 Alpha virt. eigenvalues --    1.10234   1.11403   1.13195   1.13605   1.14401
 Alpha virt. eigenvalues --    1.15324   1.17106   1.18344   1.20286   1.20634
 Alpha virt. eigenvalues --    1.21611   1.22701   1.23935   1.24219   1.26558
 Alpha virt. eigenvalues --    1.27348   1.29754   1.30252   1.32270   1.34125
 Alpha virt. eigenvalues --    1.37313   1.40083   1.40255   1.41566   1.42727
 Alpha virt. eigenvalues --    1.43615   1.45023   1.46464   1.47273   1.49371
 Alpha virt. eigenvalues --    1.49824   1.50475   1.51641   1.51869   1.52336
 Alpha virt. eigenvalues --    1.53716   1.54193   1.55433   1.56138   1.56453
 Alpha virt. eigenvalues --    1.56792   1.58486   1.59727   1.60389   1.60516
 Alpha virt. eigenvalues --    1.62130   1.63277   1.64921   1.66029   1.67547
 Alpha virt. eigenvalues --    1.68617   1.69177   1.70470   1.71322   1.74152
 Alpha virt. eigenvalues --    1.76826   1.77078   1.79016   1.79375   1.81041
 Alpha virt. eigenvalues --    1.82959   1.85922   1.88150   1.89706   1.90608
 Alpha virt. eigenvalues --    1.91367   1.94486   1.95005   1.97393   2.00539
 Alpha virt. eigenvalues --    2.00829   2.05447   2.07035   2.08350   2.08473
 Alpha virt. eigenvalues --    2.10898   2.13936   2.18607   2.20233   2.24594
 Alpha virt. eigenvalues --    2.27646   2.30685   2.37026   2.37402   2.38002
 Alpha virt. eigenvalues --    2.38279   2.39370   2.39930   2.40471   2.42150
 Alpha virt. eigenvalues --    2.42560   2.43754   2.45057   2.51015   2.54996
 Alpha virt. eigenvalues --    2.61158   2.64127   2.68330   2.71898   2.73263
 Alpha virt. eigenvalues --    2.76309   2.78780   2.81840   2.94680   2.99731
 Alpha virt. eigenvalues --    3.01876   3.09942   3.11449   3.15939   3.17849
 Alpha virt. eigenvalues --    3.24292   3.27130   3.35293   3.59307   3.74891
          Condensed to atoms (all electrons):
 Mulliken charges:
               1
     1  C    0.620780
     2  C   -0.109961
     3  S    0.373542
     4  S    0.297351
     5  C    1.040984
     6  C    1.129862
     7  C    0.786853
     8  N   -1.083101
     9  S    0.557486
    10  C   -1.129860
    11  N   -0.167938
    12  C   -1.099725
    13  N   -0.180372
    14  C   -0.852968
    15  N   -0.182933
 Sum of Mulliken charges =  -0.00000
 Mulliken charges with hydrogens summed into heavy atoms:
               1
     1  C    0.620780
     2  C   -0.109961
     3  S    0.373542
     4  S    0.297351
     5  C    1.040984
     6  C    1.129862
     7  C    0.786853
     8  N   -1.083101
     9  S    0.557486
    10  C   -1.129860
    11  N   -0.167938
    12  C   -1.099725
    13  N   -0.180372
    14  C   -0.852968
    15  N   -0.182933
 Electronic spatial extent (au):  <R**2>=          81649.9475
 Charge=             -0.0000 electrons
 Dipole moment (field-independent basis, Debye):
    X=              4.0924    Y=              1.4923    Z=             -1.7260  Tot=              4.6855

 Test job not archived.
 1\1\GINC-CHIMERA-NODE11\SP\RM05\Gen\C8N4S3\CONNORNM\19-Jan-2019\0\\#T 
 M05/Gen test Massage SCF=(fermi,maxcyc=60)\\M05 opt\\0,1\C,0,0.4068573
 4,0.05741133,12.30402071\C,0,1.14241666,0.76892484,13.29322629\S,0,-0.
 53949947,-1.39446352,12.5955423\S,0,1.1971848,0.31832416,15.00452633\C
 ,0,-1.09806794,-1.08794157,14.25028326\C,0,-0.4064384,-0.40949795,15.2
 037018\C,0,0.60746334,0.63931492,11.0685254\N,0,1.84587299,1.80079445,
 12.89541438\S,0,1.69487978,1.97739639,11.24710321\C,0,-2.36718014,-1.6
 7303377,14.52976669\N,0,-3.39227945,-2.18808125,14.71709135\C,0,-0.927
 36541,-0.25929168,16.5227981\N,0,-1.29936918,-0.13758806,17.6172055\C,
 0,0.07718143,0.24706529,9.81548519\N,0,-0.34150974,-0.0661783,8.777375
 33\\Version=AS64L-G09RevD.01\HF=-1724.7614768\RMSD=5.114e-09\Dipole=1.
 6100837,0.5871178,-0.6790568\Quadrupole=13.0089981,20.5725695,-33.5815
 675,-4.6489232,43.2950729,12.6487471\PG=C01 [X(C8N4S3)]\\@


 The best way to pay for a lovely moment is to enjoy it.
 -- Richard Bach
 Job cpu time:       0 days  1 hours 37 minutes  4.2 seconds.
 File lengths (MBytes):  RWF=     58 Int=      0 D2E=      0 Chk=      6 Scr=      1
 Normal termination of Gaussian 09 at Sat Jan 19 10:44:45 2019.
