 Entering Gaussian System, Link 0=/data/szalewicgrp/connornm/opt/Gaussian/g09-M05-par/g09/g09
 AtFile(1): blind-aug.gbs
 Initial command:
 /data/szalewicgrp/connornm/opt/Gaussian/g09-M05-par/g09/l1.exe "/scratch/local/Gau-14786.inp" -scrdir="/scratch/local/"
 Entering Link 1 = /data/szalewicgrp/connornm/opt/Gaussian/g09-M05-par/g09/l1.exe PID=     14787.
  
 Copyright (c) 1988,1990,1992,1993,1995,1998,2003,2009,2013,
            Gaussian, Inc.  All Rights Reserved.
  
 This is part of the Gaussian(R) 09 program.  It is based on
 the Gaussian(R) 03 system (copyright 2003, Gaussian, Inc.),
 the Gaussian(R) 98 system (copyright 1998, Gaussian, Inc.),
 the Gaussian(R) 94 system (copyright 1995, Gaussian, Inc.),
 the Gaussian 92(TM) system (copyright 1992, Gaussian, Inc.),
 the Gaussian 90(TM) system (copyright 1990, Gaussian, Inc.),
 the Gaussian 88(TM) system (copyright 1988, Gaussian, Inc.),
 the Gaussian 86(TM) system (copyright 1986, Carnegie Mellon
 University), and the Gaussian 82(TM) system (copyright 1983,
 Carnegie Mellon University). Gaussian is a federally registered
 trademark of Gaussian, Inc.
  
 This software contains proprietary and confidential information,
 including trade secrets, belonging to Gaussian, Inc.
  
 This software is provided under written license and may be
 used, copied, transmitted, or stored only in accord with that
 written license.
  
 The following legend is applicable only to US Government
 contracts under FAR:
  
                    RESTRICTED RIGHTS LEGEND
  
 Use, reproduction and disclosure by the US Government is
 subject to restrictions as set forth in subparagraphs (a)
 and (c) of the Commercial Computer Software - Restricted
 Rights clause in FAR 52.227-19.
  
 Gaussian, Inc.
 340 Quinnipiac St., Bldg. 40, Wallingford CT 06492
  
  
 ---------------------------------------------------------------
 Warning -- This program may not be used in any manner that
 competes with the business of Gaussian, Inc. or will provide
 assistance to any competitor of Gaussian, Inc.  The licensee
 of this program is prohibited from giving any competitor of
 Gaussian, Inc. access to this program.  By using this program,
 the user acknowledges that Gaussian, Inc. is engaged in the
 business of creating and licensing software in the field of
 computational chemistry and represents and warrants to the
 licensee that it is not a competitor of Gaussian, Inc. and that
 it will not use this program in any manner prohibited above.
 ---------------------------------------------------------------
  

 Cite this work as:
 Gaussian 09, Revision D.01,
 M. J. Frisch, G. W. Trucks, H. B. Schlegel, G. E. Scuseria, 
 M. A. Robb, J. R. Cheeseman, G. Scalmani, V. Barone, B. Mennucci, 
 G. A. Petersson, H. Nakatsuji, M. Caricato, X. Li, H. P. Hratchian, 
 A. F. Izmaylov, J. Bloino, G. Zheng, J. L. Sonnenberg, M. Hada, 
 M. Ehara, K. Toyota, R. Fukuda, J. Hasegawa, M. Ishida, T. Nakajima, 
 Y. Honda, O. Kitao, H. Nakai, T. Vreven, J. A. Montgomery, Jr., 
 J. E. Peralta, F. Ogliaro, M. Bearpark, J. J. Heyd, E. Brothers, 
 K. N. Kudin, V. N. Staroverov, T. Keith, R. Kobayashi, J. Normand, 
 K. Raghavachari, A. Rendell, J. C. Burant, S. S. Iyengar, J. Tomasi, 
 M. Cossi, N. Rega, J. M. Millam, M. Klene, J. E. Knox, J. B. Cross, 
 V. Bakken, C. Adamo, J. Jaramillo, R. Gomperts, R. E. Stratmann, 
 O. Yazyev, A. J. Austin, R. Cammi, C. Pomelli, J. W. Ochterski, 
 R. L. Martin, K. Morokuma, V. G. Zakrzewski, G. A. Voth, 
 P. Salvador, J. J. Dannenberg, S. Dapprich, A. D. Daniels, 
 O. Farkas, J. B. Foresman, J. V. Ortiz, J. Cioslowski, 
 and D. J. Fox, Gaussian, Inc., Wallingford CT, 2013.
 
 ******************************************
 Gaussian 09:  AS64L-G09RevD.01 24-Apr-2013
                19-Jan-2019 
 ******************************************
 %Chk=BLIND02136_mB
 %Mem=1GB
 %NProcShared=48
 Will use up to   48 processors via shared memory.
 ---------------------------------------------
 #T M05/Gen test Massage SCF=(fermi,maxcyc=60)
 ---------------------------------------------
 -------
 M05 opt
 -------
 Symbolic Z-matrix:
 Charge =  0 Multiplicity = 1
 6                    -0.23471  -0.54343   7.43065 
 6                    -0.85437  -1.02038   8.61992 
 16                    0.18055   1.13347   7.10806 
 16                   -1.28297   0.00728   9.99644 
 6                     0.56599   1.69075   8.74666 
 6                    -0.01711   1.24312   9.89001 
 6                    -0.0747   -1.58612   6.54042 
 7                    -1.15171  -2.29568   8.67508 
 16                   -0.72356  -3.03116   7.24446 
 6                     1.54786   2.72345   8.76989 
 7                     2.33362   3.5794    8.73622 
 6                     0.33322   1.79357   11.15817 
 7                     0.56623   2.23279   12.20875 
 6                     0.4845   -1.55374   5.23987 
 7                     0.93184  -1.54386   4.16708 
 
                    Distance matrix (angstroms):
                    1          2          3          4          5
     1  C    0.000000
     2  C    1.423315   0.000000
     3  S    1.757418   2.827694   0.000000
     4  S    2.825849   1.770477   3.428253   0.000000
     5  C    2.713774   3.063280   1.773167   2.795470   0.000000
     6  C    3.047557   2.727187   2.791121   1.772288   1.359281
     7  C    1.380327   2.291783   2.789903   3.992857   4.001979
     8  N    2.336642   1.310672   3.998700   2.658358   4.341342
     9  S    2.542129   2.439721   4.263822   4.137445   5.120151
    10  C    3.955208   4.450782   2.675676   4.110426   1.425163
    11  N    5.029770   5.597745   3.642685   5.237162   2.586817
    12  C    4.436049   3.971317   4.106384   2.674416   2.424897
    13  N    5.583831   5.047859   5.232040   3.642352   3.504263
    14  C    2.517432   3.674472   3.286888   5.309014   4.778168
    15  N    3.607292   4.826214   4.047461   6.425950   5.618639
                    6          7          8          9         10
     6  C    0.000000
     7  C    4.384939   0.000000
     8  N    3.909794   2.494036   0.000000
     9  S    5.076167   1.733444   1.664607   0.000000
    10  C    2.428007   5.116215   5.699860   6.371958   0.000000
    11  N    3.509330   6.107712   6.831389   7.434461   1.162408
    12  C    1.426163   5.736923   5.009263   6.301738   2.836178
    13  N    2.587713   6.864751   5.995430   7.349618   3.609722
    14  C    5.449573   1.416040   3.876636   2.767765   5.646781
    15  N    6.435818   2.578302   5.022796   3.797715   6.306769
                   11         12         13         14         15
    11  N    0.000000
    12  C    3.613393   0.000000
    13  N    4.122555   1.162293   0.000000
    14  C    6.480188   6.800997   7.931563   0.000000
    15  N    7.006418   7.769948   8.891861   1.162367   0.000000
 Symmetry turned off by external request.
 Framework group  C1[X(C8N4S3)]
 Deg. of freedom    39
 Rotational constants (GHZ):      0.7722167      0.3388923      0.2463240
   357 basis functions,   759 primitive gaussians,   387 cartesian basis functions
    62 alpha electrons       62 beta electrons
       nuclear repulsion energy      1166.1400396218 Hartrees.
 IMHF & INEx in M05                  599485                  400514
 NAtoms=   15 NActive=   15 NUniq=   15 SFac= 1.00D+00 NAtFMM=   60 NAOKFM=F Big=F
 PrsmSu:  requested number of processors reduced to:  34 ShMem   1 Linda.
 ExpMin= 3.99D-02 ExpMax= 1.11D+05 ExpMxC= 1.07D+03 IAcc=3 IRadAn=         5 AccDes= 0.00D+00
 Harris functional with IExCor= 1009 and IRadAn=       5 diagonalized for initial guess.
 HarFok:  IExCor= 1009 AccDes= 0.00D+00 IRadAn=         5 IDoV= 1 UseB2=F ITyADJ=14
 ICtDFT=  3500011 ScaDFX=  1.000000  1.000000  1.000000  1.000000
 FoFCou: FMM=F IPFlag=           0 FMFlag=      100000 FMFlg1=           0
         NFxFlg=           0 DoJE=T BraDBF=F KetDBF=T FulRan=T
         wScrn=  0.000000 ICntrl=     500 IOpCl=  0 I1Cent=   200000004 NGrid=           0
         NMat0=    1 NMatS0=      1 NMatT0=    0 NMatD0=    1 NMtDS0=    0 NMtDT0=    0
 Symmetry not used in FoFCou.
 SCF Done:  E(RM05) =  -1724.76148875     A.U. after   17 cycles
            NFock= 17  Conv=0.52D-08     -V/T= 2.0061

 **********************************************************************

            Population analysis using the SCF density.

 **********************************************************************

 Alpha  occ. eigenvalues --  -90.56430 -90.53636 -90.53183 -15.08622 -15.05416
 Alpha  occ. eigenvalues --  -15.04969 -15.04934 -10.89945 -10.89827 -10.89736
 Alpha  occ. eigenvalues --  -10.88752 -10.87414 -10.84946 -10.84332 -10.84311
 Alpha  occ. eigenvalues --   -8.57525  -8.55036  -8.54610  -6.40063  -6.39712
 Alpha  occ. eigenvalues --   -6.39400  -6.37597  -6.37283  -6.37164  -6.36854
 Alpha  occ. eigenvalues --   -6.36822  -6.36393  -1.20533  -1.12895  -1.12138
 Alpha  occ. eigenvalues --   -1.11338  -1.07644  -1.03801  -0.98824  -0.97396
 Alpha  occ. eigenvalues --   -0.88003  -0.84555  -0.82236  -0.73687  -0.71296
 Alpha  occ. eigenvalues --   -0.67838  -0.64612  -0.59530  -0.57258  -0.55386
 Alpha  occ. eigenvalues --   -0.53385  -0.52647  -0.52243  -0.51890  -0.50883
 Alpha  occ. eigenvalues --   -0.50387  -0.49356  -0.48216  -0.46805  -0.46075
 Alpha  occ. eigenvalues --   -0.45933  -0.45296  -0.43720  -0.43113  -0.39488
 Alpha  occ. eigenvalues --   -0.37627  -0.33120
 Alpha virt. eigenvalues --   -0.09329  -0.08268  -0.02099  -0.01262  -0.00504
 Alpha virt. eigenvalues --   -0.00362   0.00154   0.01255   0.02020   0.02230
 Alpha virt. eigenvalues --    0.02394   0.02955   0.03187   0.04003   0.04275
 Alpha virt. eigenvalues --    0.04489   0.05428   0.06003   0.06299   0.07067
 Alpha virt. eigenvalues --    0.07272   0.07525   0.07707   0.08290   0.08493
 Alpha virt. eigenvalues --    0.09375   0.10093   0.10394   0.10524   0.10813
 Alpha virt. eigenvalues --    0.11287   0.11392   0.11976   0.12526   0.13229
 Alpha virt. eigenvalues --    0.13484   0.13935   0.14455   0.15075   0.15192
 Alpha virt. eigenvalues --    0.15903   0.16274   0.16678   0.16815   0.17188
 Alpha virt. eigenvalues --    0.17362   0.17847   0.18612   0.19048   0.19568
 Alpha virt. eigenvalues --    0.19854   0.20234   0.20679   0.20934   0.21269
 Alpha virt. eigenvalues --    0.21879   0.22207   0.22584   0.22826   0.23616
 Alpha virt. eigenvalues --    0.23746   0.24113   0.24372   0.24703   0.25260
 Alpha virt. eigenvalues --    0.25692   0.25849   0.26220   0.26625   0.26748
 Alpha virt. eigenvalues --    0.27068   0.28336   0.29193   0.29662   0.30367
 Alpha virt. eigenvalues --    0.30712   0.32419   0.33457   0.34155   0.34713
 Alpha virt. eigenvalues --    0.34951   0.35471   0.36119   0.36938   0.37594
 Alpha virt. eigenvalues --    0.38151   0.39578   0.40729   0.41169   0.42049
 Alpha virt. eigenvalues --    0.42116   0.43487   0.44132   0.45734   0.45982
 Alpha virt. eigenvalues --    0.46956   0.48554   0.49575   0.50241   0.50593
 Alpha virt. eigenvalues --    0.51526   0.51855   0.53528   0.54164   0.54421
 Alpha virt. eigenvalues --    0.54698   0.55466   0.55733   0.55838   0.56451
 Alpha virt. eigenvalues --    0.57770   0.58142   0.58556   0.59219   0.60312
 Alpha virt. eigenvalues --    0.60551   0.61102   0.61587   0.62108   0.62711
 Alpha virt. eigenvalues --    0.63717   0.64713   0.64955   0.66008   0.66558
 Alpha virt. eigenvalues --    0.67687   0.68190   0.68806   0.70107   0.70417
 Alpha virt. eigenvalues --    0.71051   0.72863   0.73474   0.73853   0.75375
 Alpha virt. eigenvalues --    0.75566   0.76460   0.77061   0.77550   0.77848
 Alpha virt. eigenvalues --    0.78245   0.79255   0.79760   0.79880   0.81107
 Alpha virt. eigenvalues --    0.81534   0.82547   0.83280   0.83958   0.84872
 Alpha virt. eigenvalues --    0.85699   0.85939   0.87125   0.87247   0.88405
 Alpha virt. eigenvalues --    0.88459   0.89346   0.89666   0.89830   0.90732
 Alpha virt. eigenvalues --    0.91170   0.91722   0.92829   0.93719   0.94366
 Alpha virt. eigenvalues --    0.95432   0.95565   0.97324   0.98739   0.99309
 Alpha virt. eigenvalues --    0.99846   1.01206   1.02846   1.03574   1.04750
 Alpha virt. eigenvalues --    1.05759   1.06742   1.08038   1.08543   1.09638
 Alpha virt. eigenvalues --    1.10232   1.11402   1.13196   1.13605   1.14403
 Alpha virt. eigenvalues --    1.15322   1.17106   1.18344   1.20284   1.20631
 Alpha virt. eigenvalues --    1.21607   1.22701   1.23932   1.24223   1.26556
 Alpha virt. eigenvalues --    1.27344   1.29758   1.30249   1.32272   1.34126
 Alpha virt. eigenvalues --    1.37312   1.40081   1.40261   1.41566   1.42730
 Alpha virt. eigenvalues --    1.43616   1.45025   1.46462   1.47274   1.49372
 Alpha virt. eigenvalues --    1.49822   1.50474   1.51642   1.51872   1.52332
 Alpha virt. eigenvalues --    1.53714   1.54193   1.55430   1.56138   1.56449
 Alpha virt. eigenvalues --    1.56790   1.58487   1.59725   1.60390   1.60514
 Alpha virt. eigenvalues --    1.62129   1.63281   1.64920   1.66030   1.67548
 Alpha virt. eigenvalues --    1.68612   1.69175   1.70469   1.71324   1.74153
 Alpha virt. eigenvalues --    1.76824   1.77077   1.79015   1.79376   1.81040
 Alpha virt. eigenvalues --    1.82959   1.85919   1.88148   1.89703   1.90607
 Alpha virt. eigenvalues --    1.91369   1.94486   1.95008   1.97394   2.00540
 Alpha virt. eigenvalues --    2.00825   2.05449   2.07036   2.08349   2.08474
 Alpha virt. eigenvalues --    2.10899   2.13936   2.18605   2.20231   2.24595
 Alpha virt. eigenvalues --    2.27645   2.30684   2.37027   2.37402   2.38002
 Alpha virt. eigenvalues --    2.38280   2.39369   2.39930   2.40470   2.42149
 Alpha virt. eigenvalues --    2.42559   2.43755   2.45057   2.51018   2.54995
 Alpha virt. eigenvalues --    2.61154   2.64125   2.68329   2.71897   2.73264
 Alpha virt. eigenvalues --    2.76308   2.78779   2.81840   2.94680   2.99730
 Alpha virt. eigenvalues --    3.01877   3.09941   3.11449   3.15940   3.17849
 Alpha virt. eigenvalues --    3.24292   3.27130   3.35293   3.59305   3.74891
          Condensed to atoms (all electrons):
 Mulliken charges:
               1
     1  C    0.621085
     2  C   -0.109264
     3  S    0.374074
     4  S    0.296287
     5  C    1.039615
     6  C    1.131010
     7  C    0.786107
     8  N   -1.083248
     9  S    0.557633
    10  C   -1.129460
    11  N   -0.168054
    12  C   -1.099600
    13  N   -0.180540
    14  C   -0.852660
    15  N   -0.182982
 Sum of Mulliken charges =  -0.00000
 Mulliken charges with hydrogens summed into heavy atoms:
               1
     1  C    0.621085
     2  C   -0.109264
     3  S    0.374074
     4  S    0.296287
     5  C    1.039615
     6  C    1.131010
     7  C    0.786107
     8  N   -1.083248
     9  S    0.557633
    10  C   -1.129460
    11  N   -0.168054
    12  C   -1.099600
    13  N   -0.180540
    14  C   -0.852660
    15  N   -0.182982
 Electronic spatial extent (au):  <R**2>=          34251.2386
 Charge=             -0.0000 electrons
 Dipole moment (field-independent basis, Debye):
    X=             -3.1686    Y=             -3.3066    Z=             -0.9885  Tot=              4.6852

 Test job not archived.
 1\1\GINC-CHIMERA-NODE59\SP\RM05\Gen\C8N4S3\CONNORNM\19-Jan-2019\0\\#T 
 M05/Gen test Massage SCF=(fermi,maxcyc=60)\\M05 opt\\0,1\C,0,-0.234708
 03,-0.54343247,7.43064505\C,0,-0.85436576,-1.02037885,8.61991924\S,0,0
 .18055356,1.13347358,7.10806087\S,0,-1.28296774,0.00728235,9.996437\C,
 0,0.56599316,1.6907463,8.74665952\C,0,-0.01711241,1.2431172,9.89001429
 \C,0,-0.0746977,-1.58611981,6.54041865\N,0,-1.15170881,-2.29568444,8.6
 7508059\S,0,-0.72356383,-3.0311568,7.24445514\C,0,1.54786383,2.7234514
 8,8.76988965\N,0,2.33361654,3.57940248,8.73622078\C,0,0.33322325,1.793
 56682,11.1581673\N,0,0.56623066,2.23278915,12.20874687\C,0,0.48449957,
 -1.55374086,5.2398732\N,0,0.9318397,-1.54386492,4.16708003\\Version=AS
 64L-G09RevD.01\HF=-1724.7614888\RMSD=5.179e-09\Dipole=-1.2466331,-1.30
 09179,-0.3889041\Quadrupole=9.7750447,7.4042754,-17.1793201,-6.0228967
 ,-18.1386251,-26.4334302\PG=C01 [X(C8N4S3)]\\@


 MODELS ARE TO BE USED, NOT BELIEVED.

    -- PARAPHRASED BY H. THIEL IN "PRINCIPLES OF ECONOMETRICS"
 Job cpu time:       0 days  1 hours 47 minutes 55.0 seconds.
 File lengths (MBytes):  RWF=     58 Int=      0 D2E=      0 Chk=      6 Scr=      1
 Normal termination of Gaussian 09 at Sat Jan 19 10:43:02 2019.
