 Entering Gaussian System, Link 0=/data/szalewicgrp/connornm/opt/Gaussian/g09-M05-par/g09/g09
 AtFile(1): blind-aug.gbs
 Initial command:
 /data/szalewicgrp/connornm/opt/Gaussian/g09-M05-par/g09/l1.exe "/scratch/local/Gau-23553.inp" -scrdir="/scratch/local/"
 Entering Link 1 = /data/szalewicgrp/connornm/opt/Gaussian/g09-M05-par/g09/l1.exe PID=     23554.
  
 Copyright (c) 1988,1990,1992,1993,1995,1998,2003,2009,2013,
            Gaussian, Inc.  All Rights Reserved.
  
 This is part of the Gaussian(R) 09 program.  It is based on
 the Gaussian(R) 03 system (copyright 2003, Gaussian, Inc.),
 the Gaussian(R) 98 system (copyright 1998, Gaussian, Inc.),
 the Gaussian(R) 94 system (copyright 1995, Gaussian, Inc.),
 the Gaussian 92(TM) system (copyright 1992, Gaussian, Inc.),
 the Gaussian 90(TM) system (copyright 1990, Gaussian, Inc.),
 the Gaussian 88(TM) system (copyright 1988, Gaussian, Inc.),
 the Gaussian 86(TM) system (copyright 1986, Carnegie Mellon
 University), and the Gaussian 82(TM) system (copyright 1983,
 Carnegie Mellon University). Gaussian is a federally registered
 trademark of Gaussian, Inc.
  
 This software contains proprietary and confidential information,
 including trade secrets, belonging to Gaussian, Inc.
  
 This software is provided under written license and may be
 used, copied, transmitted, or stored only in accord with that
 written license.
  
 The following legend is applicable only to US Government
 contracts under FAR:
  
                    RESTRICTED RIGHTS LEGEND
  
 Use, reproduction and disclosure by the US Government is
 subject to restrictions as set forth in subparagraphs (a)
 and (c) of the Commercial Computer Software - Restricted
 Rights clause in FAR 52.227-19.
  
 Gaussian, Inc.
 340 Quinnipiac St., Bldg. 40, Wallingford CT 06492
  
  
 ---------------------------------------------------------------
 Warning -- This program may not be used in any manner that
 competes with the business of Gaussian, Inc. or will provide
 assistance to any competitor of Gaussian, Inc.  The licensee
 of this program is prohibited from giving any competitor of
 Gaussian, Inc. access to this program.  By using this program,
 the user acknowledges that Gaussian, Inc. is engaged in the
 business of creating and licensing software in the field of
 computational chemistry and represents and warrants to the
 licensee that it is not a competitor of Gaussian, Inc. and that
 it will not use this program in any manner prohibited above.
 ---------------------------------------------------------------
  

 Cite this work as:
 Gaussian 09, Revision D.01,
 M. J. Frisch, G. W. Trucks, H. B. Schlegel, G. E. Scuseria, 
 M. A. Robb, J. R. Cheeseman, G. Scalmani, V. Barone, B. Mennucci, 
 G. A. Petersson, H. Nakatsuji, M. Caricato, X. Li, H. P. Hratchian, 
 A. F. Izmaylov, J. Bloino, G. Zheng, J. L. Sonnenberg, M. Hada, 
 M. Ehara, K. Toyota, R. Fukuda, J. Hasegawa, M. Ishida, T. Nakajima, 
 Y. Honda, O. Kitao, H. Nakai, T. Vreven, J. A. Montgomery, Jr., 
 J. E. Peralta, F. Ogliaro, M. Bearpark, J. J. Heyd, E. Brothers, 
 K. N. Kudin, V. N. Staroverov, T. Keith, R. Kobayashi, J. Normand, 
 K. Raghavachari, A. Rendell, J. C. Burant, S. S. Iyengar, J. Tomasi, 
 M. Cossi, N. Rega, J. M. Millam, M. Klene, J. E. Knox, J. B. Cross, 
 V. Bakken, C. Adamo, J. Jaramillo, R. Gomperts, R. E. Stratmann, 
 O. Yazyev, A. J. Austin, R. Cammi, C. Pomelli, J. W. Ochterski, 
 R. L. Martin, K. Morokuma, V. G. Zakrzewski, G. A. Voth, 
 P. Salvador, J. J. Dannenberg, S. Dapprich, A. D. Daniels, 
 O. Farkas, J. B. Foresman, J. V. Ortiz, J. Cioslowski, 
 and D. J. Fox, Gaussian, Inc., Wallingford CT, 2013.
 
 ******************************************
 Gaussian 09:  AS64L-G09RevD.01 24-Apr-2013
                19-Jan-2019 
 ******************************************
 %Chk=BLIND01101_mA
 %Mem=1GB
 %NProcShared=48
 Will use up to   48 processors via shared memory.
 ---------------------------------------------
 #T M05/Gen test Massage SCF=(fermi,maxcyc=60)
 ---------------------------------------------
 -------
 M05 opt
 -------
 Symbolic Z-matrix:
 Charge =  0 Multiplicity = 1
 6                     0.41374   0.91356  -0.18799 
 6                    -0.47957   0.47016  -1.20349 
 16                    1.39736  -0.13457   0.82316 
 16                   -0.77121  -1.23173  -1.59479 
 6                     0.3334   -1.54704   0.95376 
 6                    -0.52452  -1.98035  -0.00742 
 6                     0.44378   2.29339  -0.16642 
 7                    -1.09415   1.3882   -1.90872 
 16                   -0.60377   2.89811  -1.4081 
 6                     0.48663  -2.25111   2.18335 
 7                     0.66396  -2.80468   3.18998 
 6                    -1.30396  -3.15981   0.18037 
 7                    -1.93607  -4.13027   0.27826 
 6                     1.20233   3.14317   0.6748 
 7                     1.82444   3.8556    1.35046 
 
                    Distance matrix (angstroms):
                    1          2          3          4          5
     1  C    0.000000
     2  C    1.423315   0.000000
     3  S    1.757418   2.827694   0.000000
     4  S    2.825849   1.770477   3.428253   0.000000
     5  C    2.713774   3.063280   1.773167   2.795470   0.000000
     6  C    3.047557   2.727187   2.791121   1.772288   1.359281
     7  C    1.380327   2.291783   2.789903   3.992857   4.001979
     8  N    2.336642   1.310672   3.998700   2.658358   4.341342
     9  S    2.542129   2.439721   4.263822   4.137445   5.120151
    10  C    3.955208   4.450782   2.675676   4.110426   1.425163
    11  N    5.029770   5.597745   3.642685   5.237162   2.586817
    12  C    4.436049   3.971317   4.106384   2.674416   2.424897
    13  N    5.583831   5.047859   5.232040   3.642352   3.504263
    14  C    2.517432   3.674472   3.286888   5.309014   4.778168
    15  N    3.607292   4.826214   4.047461   6.425950   5.618639
                    6          7          8          9         10
     6  C    0.000000
     7  C    4.384939   0.000000
     8  N    3.909794   2.494036   0.000000
     9  S    5.076167   1.733444   1.664607   0.000000
    10  C    2.428007   5.116215   5.699860   6.371958   0.000000
    11  N    3.509330   6.107712   6.831389   7.434461   1.162408
    12  C    1.426163   5.736923   5.009263   6.301738   2.836178
    13  N    2.587713   6.864751   5.995430   7.349618   3.609722
    14  C    5.449573   1.416040   3.876636   2.767765   5.646781
    15  N    6.435818   2.578302   5.022796   3.797715   6.306769
                   11         12         13         14         15
    11  N    0.000000
    12  C    3.613393   0.000000
    13  N    4.122555   1.162293   0.000000
    14  C    6.480188   6.800997   7.931563   0.000000
    15  N    7.006418   7.769948   8.891861   1.162367   0.000000
 Symmetry turned off by external request.
 Framework group  C1[X(C8N4S3)]
 Deg. of freedom    39
 Rotational constants (GHZ):      0.7722167      0.3388923      0.2463240
   357 basis functions,   759 primitive gaussians,   387 cartesian basis functions
    62 alpha electrons       62 beta electrons
       nuclear repulsion energy      1166.1400393937 Hartrees.
 IMHF & INEx in M05                  599485                  400514
 NAtoms=   15 NActive=   15 NUniq=   15 SFac= 1.00D+00 NAtFMM=   60 NAOKFM=F Big=F
 PrsmSu:  requested number of processors reduced to:  34 ShMem   1 Linda.
 ExpMin= 3.99D-02 ExpMax= 1.11D+05 ExpMxC= 1.07D+03 IAcc=3 IRadAn=         5 AccDes= 0.00D+00
 Harris functional with IExCor= 1009 and IRadAn=       5 diagonalized for initial guess.
 HarFok:  IExCor= 1009 AccDes= 0.00D+00 IRadAn=         5 IDoV= 1 UseB2=F ITyADJ=14
 ICtDFT=  3500011 ScaDFX=  1.000000  1.000000  1.000000  1.000000
 FoFCou: FMM=F IPFlag=           0 FMFlag=      100000 FMFlg1=           0
         NFxFlg=           0 DoJE=T BraDBF=F KetDBF=T FulRan=T
         wScrn=  0.000000 ICntrl=     500 IOpCl=  0 I1Cent=   200000004 NGrid=           0
         NMat0=    1 NMatS0=      1 NMatT0=    0 NMatD0=    1 NMtDS0=    0 NMtDT0=    0
 Symmetry not used in FoFCou.
 SCF Done:  E(RM05) =  -1724.76149037     A.U. after   17 cycles
            NFock= 17  Conv=0.52D-08     -V/T= 2.0061

 **********************************************************************

            Population analysis using the SCF density.

 **********************************************************************

 Alpha  occ. eigenvalues --  -90.56430 -90.53638 -90.53182 -15.08622 -15.05416
 Alpha  occ. eigenvalues --  -15.04970 -15.04934 -10.89945 -10.89827 -10.89735
 Alpha  occ. eigenvalues --  -10.88752 -10.87413 -10.84946 -10.84332 -10.84310
 Alpha  occ. eigenvalues --   -8.57526  -8.55037  -8.54610  -6.40063  -6.39713
 Alpha  occ. eigenvalues --   -6.39401  -6.37599  -6.37284  -6.37163  -6.36853
 Alpha  occ. eigenvalues --   -6.36823  -6.36393  -1.20533  -1.12896  -1.12138
 Alpha  occ. eigenvalues --   -1.11338  -1.07643  -1.03801  -0.98824  -0.97396
 Alpha  occ. eigenvalues --   -0.88002  -0.84555  -0.82236  -0.73687  -0.71296
 Alpha  occ. eigenvalues --   -0.67838  -0.64612  -0.59530  -0.57258  -0.55386
 Alpha  occ. eigenvalues --   -0.53385  -0.52647  -0.52243  -0.51890  -0.50883
 Alpha  occ. eigenvalues --   -0.50387  -0.49356  -0.48216  -0.46805  -0.46075
 Alpha  occ. eigenvalues --   -0.45933  -0.45296  -0.43720  -0.43113  -0.39488
 Alpha  occ. eigenvalues --   -0.37627  -0.33120
 Alpha virt. eigenvalues --   -0.09329  -0.08268  -0.02098  -0.01262  -0.00505
 Alpha virt. eigenvalues --   -0.00361   0.00153   0.01255   0.02018   0.02227
 Alpha virt. eigenvalues --    0.02394   0.02955   0.03189   0.04001   0.04274
 Alpha virt. eigenvalues --    0.04487   0.05428   0.06003   0.06295   0.07067
 Alpha virt. eigenvalues --    0.07271   0.07523   0.07708   0.08287   0.08490
 Alpha virt. eigenvalues --    0.09373   0.10092   0.10396   0.10524   0.10811
 Alpha virt. eigenvalues --    0.11289   0.11389   0.11978   0.12526   0.13230
 Alpha virt. eigenvalues --    0.13488   0.13935   0.14456   0.15075   0.15190
 Alpha virt. eigenvalues --    0.15905   0.16274   0.16680   0.16816   0.17188
 Alpha virt. eigenvalues --    0.17360   0.17839   0.18612   0.19041   0.19555
 Alpha virt. eigenvalues --    0.19860   0.20238   0.20680   0.20931   0.21270
 Alpha virt. eigenvalues --    0.21881   0.22206   0.22584   0.22820   0.23617
 Alpha virt. eigenvalues --    0.23748   0.24121   0.24374   0.24698   0.25262
 Alpha virt. eigenvalues --    0.25695   0.25852   0.26224   0.26626   0.26742
 Alpha virt. eigenvalues --    0.27070   0.28332   0.29193   0.29663   0.30365
 Alpha virt. eigenvalues --    0.30711   0.32419   0.33459   0.34153   0.34711
 Alpha virt. eigenvalues --    0.34952   0.35469   0.36119   0.36935   0.37593
 Alpha virt. eigenvalues --    0.38150   0.39578   0.40730   0.41169   0.42048
 Alpha virt. eigenvalues --    0.42114   0.43486   0.44131   0.45735   0.45983
 Alpha virt. eigenvalues --    0.46959   0.48557   0.49574   0.50238   0.50599
 Alpha virt. eigenvalues --    0.51525   0.51856   0.53526   0.54167   0.54425
 Alpha virt. eigenvalues --    0.54701   0.55466   0.55731   0.55838   0.56451
 Alpha virt. eigenvalues --    0.57777   0.58146   0.58559   0.59218   0.60314
 Alpha virt. eigenvalues --    0.60552   0.61101   0.61588   0.62108   0.62710
 Alpha virt. eigenvalues --    0.63717   0.64718   0.64957   0.66009   0.66560
 Alpha virt. eigenvalues --    0.67686   0.68191   0.68804   0.70108   0.70416
 Alpha virt. eigenvalues --    0.71048   0.72862   0.73475   0.73853   0.75375
 Alpha virt. eigenvalues --    0.75566   0.76456   0.77062   0.77550   0.77844
 Alpha virt. eigenvalues --    0.78246   0.79256   0.79760   0.79880   0.81105
 Alpha virt. eigenvalues --    0.81536   0.82548   0.83276   0.83957   0.84871
 Alpha virt. eigenvalues --    0.85699   0.85939   0.87123   0.87247   0.88401
 Alpha virt. eigenvalues --    0.88460   0.89345   0.89665   0.89831   0.90731
 Alpha virt. eigenvalues --    0.91170   0.91724   0.92830   0.93719   0.94366
 Alpha virt. eigenvalues --    0.95430   0.95566   0.97325   0.98740   0.99306
 Alpha virt. eigenvalues --    0.99843   1.01199   1.02851   1.03574   1.04748
 Alpha virt. eigenvalues --    1.05760   1.06744   1.08038   1.08540   1.09633
 Alpha virt. eigenvalues --    1.10231   1.11401   1.13199   1.13605   1.14405
 Alpha virt. eigenvalues --    1.15319   1.17100   1.18345   1.20284   1.20630
 Alpha virt. eigenvalues --    1.21605   1.22699   1.23935   1.24221   1.26557
 Alpha virt. eigenvalues --    1.27343   1.29757   1.30250   1.32274   1.34124
 Alpha virt. eigenvalues --    1.37312   1.40081   1.40256   1.41565   1.42732
 Alpha virt. eigenvalues --    1.43617   1.45024   1.46461   1.47274   1.49369
 Alpha virt. eigenvalues --    1.49820   1.50474   1.51641   1.51870   1.52334
 Alpha virt. eigenvalues --    1.53715   1.54192   1.55431   1.56136   1.56451
 Alpha virt. eigenvalues --    1.56787   1.58489   1.59723   1.60390   1.60515
 Alpha virt. eigenvalues --    1.62130   1.63286   1.64920   1.66027   1.67547
 Alpha virt. eigenvalues --    1.68613   1.69171   1.70469   1.71327   1.74150
 Alpha virt. eigenvalues --    1.76823   1.77077   1.79015   1.79379   1.81040
 Alpha virt. eigenvalues --    1.82956   1.85919   1.88146   1.89703   1.90607
 Alpha virt. eigenvalues --    1.91370   1.94487   1.95008   1.97396   2.00541
 Alpha virt. eigenvalues --    2.00827   2.05450   2.07037   2.08348   2.08476
 Alpha virt. eigenvalues --    2.10895   2.13937   2.18606   2.20231   2.24595
 Alpha virt. eigenvalues --    2.27648   2.30686   2.37025   2.37401   2.38002
 Alpha virt. eigenvalues --    2.38279   2.39369   2.39930   2.40470   2.42149
 Alpha virt. eigenvalues --    2.42560   2.43755   2.45055   2.51018   2.54996
 Alpha virt. eigenvalues --    2.61155   2.64124   2.68329   2.71897   2.73264
 Alpha virt. eigenvalues --    2.76308   2.78779   2.81839   2.94681   2.99731
 Alpha virt. eigenvalues --    3.01880   3.09943   3.11453   3.15939   3.17851
 Alpha virt. eigenvalues --    3.24293   3.27128   3.35293   3.59303   3.74891
          Condensed to atoms (all electrons):
 Mulliken charges:
               1
     1  C    0.621488
     2  C   -0.108978
     3  S    0.373928
     4  S    0.296364
     5  C    1.040597
     6  C    1.131834
     7  C    0.786051
     8  N   -1.083405
     9  S    0.557237
    10  C   -1.130004
    11  N   -0.168001
    12  C   -1.100839
    13  N   -0.180410
    14  C   -0.852942
    15  N   -0.182919
 Sum of Mulliken charges =  -0.00000
 Mulliken charges with hydrogens summed into heavy atoms:
               1
     1  C    0.621488
     2  C   -0.108978
     3  S    0.373928
     4  S    0.296364
     5  C    1.040597
     6  C    1.131834
     7  C    0.786051
     8  N   -1.083405
     9  S    0.557237
    10  C   -1.130004
    11  N   -0.168001
    12  C   -1.100839
    13  N   -0.180410
    14  C   -0.852942
    15  N   -0.182919
 Electronic spatial extent (au):  <R**2>=           4013.7182
 Charge=             -0.0000 electrons
 Dipole moment (field-independent basis, Debye):
    X=              0.1956    Y=              2.8229    Z=             -3.7336  Tot=              4.6848

 Test job not archived.
 1\1\GINC-CHIMERA-NODE28\SP\RM05\Gen\C8N4S3\CONNORNM\19-Jan-2019\0\\#T 
 M05/Gen test Massage SCF=(fermi,maxcyc=60)\\M05 opt\\0,1\C,0,0.4137396
 3,0.91355704,-0.18799459\C,0,-0.47956831,0.47015703,-1.20348659\S,0,1.
 39735775,-0.13457167,0.82316231\S,0,-0.77120911,-1.23172948,-1.5947873
 3\C,0,0.33339815,-1.54703662,0.95375642\C,0,-0.52451638,-1.98034602,-0
 .00742497\C,0,0.44378321,2.29338853,-0.16641537\N,0,-1.0941479,1.38819
 916,-1.90871748\S,0,-0.60377199,2.89810831,-1.40809514\C,0,0.48663244,
 -2.25110562,2.18334812\N,0,0.66396444,-2.80467884,3.18997768\C,0,-1.30
 395872,-3.15981465,0.1803657\N,0,-1.93606752,-4.13026887,0.27825952\C,
 0,1.20233109,3.14316896,0.67480206\N,0,1.82444036,3.85560362,1.3504593
 9\\Version=AS64L-G09RevD.01\HF=-1724.7614904\RMSD=5.150e-09\Dipole=0.0
 769483,1.1106217,-1.4689118\Quadrupole=5.2001054,-6.5476268,1.3475215,
 -9.2758777,-3.7676003,1.645174\PG=C01 [X(C8N4S3)]\\@


 WE'RE IN THE POSITION OF A VISITOR FROM ANOTHER
 DIMENSION WHO COMES TO EARTH AND SEES A CHESS MATCH.
 ASSUMING HE KNOWS IT'S A GAME, HE'S GOT TWO PROBLEMS:
 FIRST, FIGURE OUT THE RULES, AND SECOND, FIGURE OUT HOW TO WIN.
 NINETY PERCENT OF SCIENCE (INCLUDING VIRTUALLY ALL OF CHEMISRY)
 IS IN THAT SECOND CATEGORY.  THEY'RE TRYING TO APPLY
 THE LAWS THAT ARE ALREADY KNOWN.

                     -- SHELDON GLASHOW, 1979
 Job cpu time:       0 days  1 hours 54 minutes 44.9 seconds.
 File lengths (MBytes):  RWF=     58 Int=      0 D2E=      0 Chk=      6 Scr=      1
 Normal termination of Gaussian 09 at Sat Jan 19 11:07:55 2019.
