 Entering Gaussian System, Link 0=/data/szalewicgrp/connornm/opt/Gaussian/g09-M05-par/g09/g09
 AtFile(1): blind-aug.gbs
 Initial command:
 /data/szalewicgrp/connornm/opt/Gaussian/g09-M05-par/g09/l1.exe "/scratch/local/Gau-6757.inp" -scrdir="/scratch/local/"
 Entering Link 1 = /data/szalewicgrp/connornm/opt/Gaussian/g09-M05-par/g09/l1.exe PID=      6758.
  
 Copyright (c) 1988,1990,1992,1993,1995,1998,2003,2009,2013,
            Gaussian, Inc.  All Rights Reserved.
  
 This is part of the Gaussian(R) 09 program.  It is based on
 the Gaussian(R) 03 system (copyright 2003, Gaussian, Inc.),
 the Gaussian(R) 98 system (copyright 1998, Gaussian, Inc.),
 the Gaussian(R) 94 system (copyright 1995, Gaussian, Inc.),
 the Gaussian 92(TM) system (copyright 1992, Gaussian, Inc.),
 the Gaussian 90(TM) system (copyright 1990, Gaussian, Inc.),
 the Gaussian 88(TM) system (copyright 1988, Gaussian, Inc.),
 the Gaussian 86(TM) system (copyright 1986, Carnegie Mellon
 University), and the Gaussian 82(TM) system (copyright 1983,
 Carnegie Mellon University). Gaussian is a federally registered
 trademark of Gaussian, Inc.
  
 This software contains proprietary and confidential information,
 including trade secrets, belonging to Gaussian, Inc.
  
 This software is provided under written license and may be
 used, copied, transmitted, or stored only in accord with that
 written license.
  
 The following legend is applicable only to US Government
 contracts under FAR:
  
                    RESTRICTED RIGHTS LEGEND
  
 Use, reproduction and disclosure by the US Government is
 subject to restrictions as set forth in subparagraphs (a)
 and (c) of the Commercial Computer Software - Restricted
 Rights clause in FAR 52.227-19.
  
 Gaussian, Inc.
 340 Quinnipiac St., Bldg. 40, Wallingford CT 06492
  
  
 ---------------------------------------------------------------
 Warning -- This program may not be used in any manner that
 competes with the business of Gaussian, Inc. or will provide
 assistance to any competitor of Gaussian, Inc.  The licensee
 of this program is prohibited from giving any competitor of
 Gaussian, Inc. access to this program.  By using this program,
 the user acknowledges that Gaussian, Inc. is engaged in the
 business of creating and licensing software in the field of
 computational chemistry and represents and warrants to the
 licensee that it is not a competitor of Gaussian, Inc. and that
 it will not use this program in any manner prohibited above.
 ---------------------------------------------------------------
  

 Cite this work as:
 Gaussian 09, Revision D.01,
 M. J. Frisch, G. W. Trucks, H. B. Schlegel, G. E. Scuseria, 
 M. A. Robb, J. R. Cheeseman, G. Scalmani, V. Barone, B. Mennucci, 
 G. A. Petersson, H. Nakatsuji, M. Caricato, X. Li, H. P. Hratchian, 
 A. F. Izmaylov, J. Bloino, G. Zheng, J. L. Sonnenberg, M. Hada, 
 M. Ehara, K. Toyota, R. Fukuda, J. Hasegawa, M. Ishida, T. Nakajima, 
 Y. Honda, O. Kitao, H. Nakai, T. Vreven, J. A. Montgomery, Jr., 
 J. E. Peralta, F. Ogliaro, M. Bearpark, J. J. Heyd, E. Brothers, 
 K. N. Kudin, V. N. Staroverov, T. Keith, R. Kobayashi, J. Normand, 
 K. Raghavachari, A. Rendell, J. C. Burant, S. S. Iyengar, J. Tomasi, 
 M. Cossi, N. Rega, J. M. Millam, M. Klene, J. E. Knox, J. B. Cross, 
 V. Bakken, C. Adamo, J. Jaramillo, R. Gomperts, R. E. Stratmann, 
 O. Yazyev, A. J. Austin, R. Cammi, C. Pomelli, J. W. Ochterski, 
 R. L. Martin, K. Morokuma, V. G. Zakrzewski, G. A. Voth, 
 P. Salvador, J. J. Dannenberg, S. Dapprich, A. D. Daniels, 
 O. Farkas, J. B. Foresman, J. V. Ortiz, J. Cioslowski, 
 and D. J. Fox, Gaussian, Inc., Wallingford CT, 2013.
 
 ******************************************
 Gaussian 09:  AS64L-G09RevD.01 24-Apr-2013
                19-Jan-2019 
 ******************************************
 %Chk=BLIND01075_mA
 %Mem=1GB
 %NProcShared=48
 Will use up to   48 processors via shared memory.
 ---------------------------------------------
 #T M05/Gen test Massage SCF=(fermi,maxcyc=60)
 ---------------------------------------------
 -------
 M05 opt
 -------
 Symbolic Z-matrix:
 Charge =  0 Multiplicity = 1
 6                     0.18638   0.55463  -0.83592 
 6                     0.12102  -0.84584  -1.08135 
 16                    0.72873   1.29547   0.66259 
 16                    0.55078  -2.08323   0.10976 
 6                     0.18296   0.084     1.83674 
 6                     0.11479  -1.25532   1.61491 
 6                    -0.1726    1.24307  -1.97718 
 7                    -0.25005  -1.23158  -2.27775 
 16                   -0.52551   0.10273  -3.23413 
 6                    -0.15182   0.64398   3.10379 
 7                    -0.39022   1.14376   4.12584 
 6                    -0.29458  -2.15138   2.64614 
 7                    -0.59415  -2.92032   3.46463 
 6                    -0.23353   2.6437   -2.17641 
 7                    -0.28016   3.79045  -2.36051 
 
                    Distance matrix (angstroms):
                    1          2          3          4          5
     1  C    0.000000
     2  C    1.423315   0.000000
     3  S    1.757418   2.827694   0.000000
     4  S    2.825849   1.770477   3.428253   0.000000
     5  C    2.713774   3.063280   1.773167   2.795470   0.000000
     6  C    3.047557   2.727187   2.791121   1.772288   1.359281
     7  C    1.380327   2.291783   2.789903   3.992857   4.001979
     8  N    2.336642   1.310672   3.998700   2.658358   4.341342
     9  S    2.542129   2.439721   4.263822   4.137445   5.120151
    10  C    3.955208   4.450782   2.675676   4.110426   1.425163
    11  N    5.029770   5.597745   3.642685   5.237162   2.586817
    12  C    4.436049   3.971317   4.106384   2.674416   2.424897
    13  N    5.583831   5.047859   5.232040   3.642352   3.504263
    14  C    2.517432   3.674472   3.286888   5.309014   4.778168
    15  N    3.607292   4.826214   4.047461   6.425950   5.618639
                    6          7          8          9         10
     6  C    0.000000
     7  C    4.384939   0.000000
     8  N    3.909794   2.494036   0.000000
     9  S    5.076167   1.733444   1.664607   0.000000
    10  C    2.428007   5.116215   5.699860   6.371958   0.000000
    11  N    3.509330   6.107712   6.831389   7.434461   1.162408
    12  C    1.426163   5.736923   5.009263   6.301738   2.836178
    13  N    2.587713   6.864751   5.995430   7.349618   3.609722
    14  C    5.449573   1.416040   3.876636   2.767765   5.646781
    15  N    6.435818   2.578302   5.022796   3.797715   6.306769
                   11         12         13         14         15
    11  N    0.000000
    12  C    3.613393   0.000000
    13  N    4.122555   1.162293   0.000000
    14  C    6.480188   6.800997   7.931563   0.000000
    15  N    7.006418   7.769948   8.891861   1.162367   0.000000
 Symmetry turned off by external request.
 Framework group  C1[X(C8N4S3)]
 Deg. of freedom    39
 Rotational constants (GHZ):      0.7722167      0.3388923      0.2463240
   357 basis functions,   759 primitive gaussians,   387 cartesian basis functions
    62 alpha electrons       62 beta electrons
       nuclear repulsion energy      1166.1400400307 Hartrees.
 IMHF & INEx in M05                  599485                  400514
 NAtoms=   15 NActive=   15 NUniq=   15 SFac= 1.00D+00 NAtFMM=   60 NAOKFM=F Big=F
 PrsmSu:  requested number of processors reduced to:  34 ShMem   1 Linda.
 ExpMin= 3.99D-02 ExpMax= 1.11D+05 ExpMxC= 1.07D+03 IAcc=3 IRadAn=         5 AccDes= 0.00D+00
 Harris functional with IExCor= 1009 and IRadAn=       5 diagonalized for initial guess.
 HarFok:  IExCor= 1009 AccDes= 0.00D+00 IRadAn=         5 IDoV= 1 UseB2=F ITyADJ=14
 ICtDFT=  3500011 ScaDFX=  1.000000  1.000000  1.000000  1.000000
 FoFCou: FMM=F IPFlag=           0 FMFlag=      100000 FMFlg1=           0
         NFxFlg=           0 DoJE=T BraDBF=F KetDBF=T FulRan=T
         wScrn=  0.000000 ICntrl=     500 IOpCl=  0 I1Cent=   200000004 NGrid=           0
         NMat0=    1 NMatS0=      1 NMatT0=    0 NMatD0=    1 NMtDS0=    0 NMtDT0=    0
 Symmetry not used in FoFCou.
 SCF Done:  E(RM05) =  -1724.76147508     A.U. after   17 cycles
            NFock= 17  Conv=0.51D-08     -V/T= 2.0061

 **********************************************************************

            Population analysis using the SCF density.

 **********************************************************************

 Alpha  occ. eigenvalues --  -90.56430 -90.53635 -90.53180 -15.08622 -15.05417
 Alpha  occ. eigenvalues --  -15.04969 -15.04934 -10.89944 -10.89826 -10.89736
 Alpha  occ. eigenvalues --  -10.88752 -10.87414 -10.84947 -10.84332 -10.84310
 Alpha  occ. eigenvalues --   -8.57525  -8.55035  -8.54607  -6.40062  -6.39712
 Alpha  occ. eigenvalues --   -6.39400  -6.37596  -6.37282  -6.37161  -6.36851
 Alpha  occ. eigenvalues --   -6.36821  -6.36391  -1.20533  -1.12895  -1.12139
 Alpha  occ. eigenvalues --   -1.11337  -1.07643  -1.03801  -0.98824  -0.97396
 Alpha  occ. eigenvalues --   -0.88003  -0.84555  -0.82236  -0.73686  -0.71296
 Alpha  occ. eigenvalues --   -0.67838  -0.64612  -0.59530  -0.57258  -0.55386
 Alpha  occ. eigenvalues --   -0.53385  -0.52648  -0.52242  -0.51890  -0.50883
 Alpha  occ. eigenvalues --   -0.50387  -0.49356  -0.48215  -0.46805  -0.46074
 Alpha  occ. eigenvalues --   -0.45933  -0.45296  -0.43720  -0.43113  -0.39488
 Alpha  occ. eigenvalues --   -0.37627  -0.33119
 Alpha virt. eigenvalues --   -0.09329  -0.08269  -0.02099  -0.01263  -0.00508
 Alpha virt. eigenvalues --   -0.00362   0.00153   0.01255   0.02019   0.02227
 Alpha virt. eigenvalues --    0.02394   0.02956   0.03185   0.04003   0.04275
 Alpha virt. eigenvalues --    0.04486   0.05426   0.06005   0.06299   0.07066
 Alpha virt. eigenvalues --    0.07266   0.07526   0.07707   0.08290   0.08494
 Alpha virt. eigenvalues --    0.09373   0.10092   0.10387   0.10521   0.10809
 Alpha virt. eigenvalues --    0.11288   0.11390   0.11976   0.12527   0.13228
 Alpha virt. eigenvalues --    0.13490   0.13932   0.14454   0.15076   0.15193
 Alpha virt. eigenvalues --    0.15898   0.16268   0.16679   0.16813   0.17190
 Alpha virt. eigenvalues --    0.17363   0.17837   0.18612   0.19042   0.19563
 Alpha virt. eigenvalues --    0.19857   0.20241   0.20685   0.20948   0.21269
 Alpha virt. eigenvalues --    0.21881   0.22207   0.22582   0.22814   0.23612
 Alpha virt. eigenvalues --    0.23742   0.24108   0.24362   0.24702   0.25255
 Alpha virt. eigenvalues --    0.25690   0.25855   0.26226   0.26620   0.26749
 Alpha virt. eigenvalues --    0.27072   0.28332   0.29193   0.29660   0.30366
 Alpha virt. eigenvalues --    0.30707   0.32418   0.33453   0.34152   0.34715
 Alpha virt. eigenvalues --    0.34948   0.35469   0.36118   0.36936   0.37592
 Alpha virt. eigenvalues --    0.38149   0.39578   0.40726   0.41167   0.42051
 Alpha virt. eigenvalues --    0.42121   0.43486   0.44132   0.45735   0.45973
 Alpha virt. eigenvalues --    0.46955   0.48540   0.49567   0.50228   0.50594
 Alpha virt. eigenvalues --    0.51522   0.51856   0.53531   0.54165   0.54423
 Alpha virt. eigenvalues --    0.54701   0.55467   0.55737   0.55836   0.56448
 Alpha virt. eigenvalues --    0.57770   0.58133   0.58553   0.59210   0.60311
 Alpha virt. eigenvalues --    0.60551   0.61101   0.61590   0.62108   0.62708
 Alpha virt. eigenvalues --    0.63721   0.64717   0.64951   0.66007   0.66553
 Alpha virt. eigenvalues --    0.67692   0.68188   0.68805   0.70110   0.70413
 Alpha virt. eigenvalues --    0.71047   0.72858   0.73465   0.73852   0.75373
 Alpha virt. eigenvalues --    0.75564   0.76457   0.77062   0.77550   0.77842
 Alpha virt. eigenvalues --    0.78245   0.79255   0.79761   0.79878   0.81104
 Alpha virt. eigenvalues --    0.81537   0.82545   0.83275   0.83956   0.84869
 Alpha virt. eigenvalues --    0.85699   0.85940   0.87122   0.87249   0.88405
 Alpha virt. eigenvalues --    0.88458   0.89344   0.89666   0.89828   0.90730
 Alpha virt. eigenvalues --    0.91169   0.91720   0.92827   0.93718   0.94366
 Alpha virt. eigenvalues --    0.95430   0.95564   0.97324   0.98741   0.99313
 Alpha virt. eigenvalues --    0.99844   1.01203   1.02846   1.03574   1.04751
 Alpha virt. eigenvalues --    1.05754   1.06743   1.08039   1.08545   1.09635
 Alpha virt. eigenvalues --    1.10234   1.11400   1.13196   1.13606   1.14401
 Alpha virt. eigenvalues --    1.15319   1.17100   1.18346   1.20282   1.20629
 Alpha virt. eigenvalues --    1.21604   1.22701   1.23933   1.24220   1.26554
 Alpha virt. eigenvalues --    1.27347   1.29754   1.30248   1.32269   1.34127
 Alpha virt. eigenvalues --    1.37313   1.40084   1.40257   1.41566   1.42730
 Alpha virt. eigenvalues --    1.43615   1.45023   1.46463   1.47272   1.49372
 Alpha virt. eigenvalues --    1.49824   1.50475   1.51642   1.51868   1.52334
 Alpha virt. eigenvalues --    1.53715   1.54193   1.55429   1.56136   1.56447
 Alpha virt. eigenvalues --    1.56791   1.58486   1.59726   1.60389   1.60517
 Alpha virt. eigenvalues --    1.62129   1.63281   1.64920   1.66027   1.67546
 Alpha virt. eigenvalues --    1.68615   1.69171   1.70470   1.71324   1.74153
 Alpha virt. eigenvalues --    1.76826   1.77077   1.79016   1.79377   1.81044
 Alpha virt. eigenvalues --    1.82961   1.85922   1.88153   1.89703   1.90608
 Alpha virt. eigenvalues --    1.91367   1.94484   1.95004   1.97392   2.00539
 Alpha virt. eigenvalues --    2.00828   2.05448   2.07034   2.08349   2.08473
 Alpha virt. eigenvalues --    2.10897   2.13936   2.18606   2.20235   2.24595
 Alpha virt. eigenvalues --    2.27651   2.30687   2.37025   2.37401   2.38002
 Alpha virt. eigenvalues --    2.38279   2.39369   2.39931   2.40470   2.42150
 Alpha virt. eigenvalues --    2.42561   2.43756   2.45056   2.51014   2.54996
 Alpha virt. eigenvalues --    2.61163   2.64124   2.68330   2.71899   2.73263
 Alpha virt. eigenvalues --    2.76309   2.78780   2.81841   2.94680   2.99731
 Alpha virt. eigenvalues --    3.01877   3.09945   3.11452   3.15941   3.17850
 Alpha virt. eigenvalues --    3.24296   3.27132   3.35295   3.59312   3.74894
          Condensed to atoms (all electrons):
 Mulliken charges:
               1
     1  C    0.618509
     2  C   -0.108397
     3  S    0.374200
     4  S    0.297633
     5  C    1.041495
     6  C    1.129821
     7  C    0.787834
     8  N   -1.083478
     9  S    0.557515
    10  C   -1.129668
    11  N   -0.168092
    12  C   -1.100068
    13  N   -0.180662
    14  C   -0.853787
    15  N   -0.182856
 Sum of Mulliken charges =  -0.00000
 Mulliken charges with hydrogens summed into heavy atoms:
               1
     1  C    0.618509
     2  C   -0.108397
     3  S    0.374200
     4  S    0.297633
     5  C    1.041495
     6  C    1.129821
     7  C    0.787834
     8  N   -1.083478
     9  S    0.557515
    10  C   -1.129668
    11  N   -0.168092
    12  C   -1.100068
    13  N   -0.180662
    14  C   -0.853787
    15  N   -0.182856
 Electronic spatial extent (au):  <R**2>=           4013.7179
 Charge=              0.0000 electrons
 Dipole moment (field-independent basis, Debye):
    X=              1.3646    Y=             -0.9854    Z=             -4.3724  Tot=              4.6852

 Test job not archived.
 1\1\GINC-CHIMERA-NODE50\SP\RM05\Gen\C8N4S3\CONNORNM\19-Jan-2019\0\\#T 
 M05/Gen test Massage SCF=(fermi,maxcyc=60)\\M05 opt\\0,1\C,0,0.1863769
 3,0.55463201,-0.83591619\C,0,0.12102387,-0.84583803,-1.08135315\S,0,0.
 72872537,1.29546996,0.66259438\S,0,0.55078473,-2.08323226,0.10975955\C
 ,0,0.18295808,0.08400289,1.83673563\C,0,0.11479091,-1.25532177,1.61490
 967\C,0,-0.17260159,1.24307108,-1.97718272\N,0,-0.25004964,-1.2315756,
 -2.27775233\S,0,-0.52551069,0.10273407,-3.23412871\C,0,-0.15181868,0.6
 4398468,3.10379308\N,0,-0.39022283,1.14375518,4.12584295\C,0,-0.294582
 24,-2.15138244,2.64613749\N,0,-0.59414985,-2.92031511,3.46462874\C,0,-
 0.23352802,2.6437006,-2.17641466\N,0,-0.2801623,3.79044791,-2.36051185
 \\Version=AS64L-G09RevD.01\HF=-1724.7614751\RMSD=5.138e-09\Dipole=0.53
 6886,-0.3877035,-1.7202294\Quadrupole=10.9730733,-6.1675917,-4.8054816
 ,-0.7797589,3.8826927,5.6857653\PG=C01 [X(C8N4S3)]\\@


 THE THINKER DIES, BUT HIS THOUGHTS ARE BEYOND THE 
 REACH OF DESTRUCTION.  MEN ARE MORTAL; BUT IDEAS 
 ARE IMMORTAL.
                              -- WALTER LIPPMANN
 Job cpu time:       0 days  1 hours 38 minutes 28.6 seconds.
 File lengths (MBytes):  RWF=     58 Int=      0 D2E=      0 Chk=      6 Scr=      1
 Normal termination of Gaussian 09 at Sat Jan 19 10:42:46 2019.
