 Entering Gaussian System, Link 0=/data/szalewicgrp/connornm/opt/Gaussian/g09-M05-par/g09/g09
 AtFile(1): blind-aug.gbs
 Initial command:
 /data/szalewicgrp/connornm/opt/Gaussian/g09-M05-par/g09/l1.exe "/scratch/local/Gau-27201.inp" -scrdir="/scratch/local/"
 Entering Link 1 = /data/szalewicgrp/connornm/opt/Gaussian/g09-M05-par/g09/l1.exe PID=     27202.
  
 Copyright (c) 1988,1990,1992,1993,1995,1998,2003,2009,2013,
            Gaussian, Inc.  All Rights Reserved.
  
 This is part of the Gaussian(R) 09 program.  It is based on
 the Gaussian(R) 03 system (copyright 2003, Gaussian, Inc.),
 the Gaussian(R) 98 system (copyright 1998, Gaussian, Inc.),
 the Gaussian(R) 94 system (copyright 1995, Gaussian, Inc.),
 the Gaussian 92(TM) system (copyright 1992, Gaussian, Inc.),
 the Gaussian 90(TM) system (copyright 1990, Gaussian, Inc.),
 the Gaussian 88(TM) system (copyright 1988, Gaussian, Inc.),
 the Gaussian 86(TM) system (copyright 1986, Carnegie Mellon
 University), and the Gaussian 82(TM) system (copyright 1983,
 Carnegie Mellon University). Gaussian is a federally registered
 trademark of Gaussian, Inc.
  
 This software contains proprietary and confidential information,
 including trade secrets, belonging to Gaussian, Inc.
  
 This software is provided under written license and may be
 used, copied, transmitted, or stored only in accord with that
 written license.
  
 The following legend is applicable only to US Government
 contracts under FAR:
  
                    RESTRICTED RIGHTS LEGEND
  
 Use, reproduction and disclosure by the US Government is
 subject to restrictions as set forth in subparagraphs (a)
 and (c) of the Commercial Computer Software - Restricted
 Rights clause in FAR 52.227-19.
  
 Gaussian, Inc.
 340 Quinnipiac St., Bldg. 40, Wallingford CT 06492
  
  
 ---------------------------------------------------------------
 Warning -- This program may not be used in any manner that
 competes with the business of Gaussian, Inc. or will provide
 assistance to any competitor of Gaussian, Inc.  The licensee
 of this program is prohibited from giving any competitor of
 Gaussian, Inc. access to this program.  By using this program,
 the user acknowledges that Gaussian, Inc. is engaged in the
 business of creating and licensing software in the field of
 computational chemistry and represents and warrants to the
 licensee that it is not a competitor of Gaussian, Inc. and that
 it will not use this program in any manner prohibited above.
 ---------------------------------------------------------------
  

 Cite this work as:
 Gaussian 09, Revision D.01,
 M. J. Frisch, G. W. Trucks, H. B. Schlegel, G. E. Scuseria, 
 M. A. Robb, J. R. Cheeseman, G. Scalmani, V. Barone, B. Mennucci, 
 G. A. Petersson, H. Nakatsuji, M. Caricato, X. Li, H. P. Hratchian, 
 A. F. Izmaylov, J. Bloino, G. Zheng, J. L. Sonnenberg, M. Hada, 
 M. Ehara, K. Toyota, R. Fukuda, J. Hasegawa, M. Ishida, T. Nakajima, 
 Y. Honda, O. Kitao, H. Nakai, T. Vreven, J. A. Montgomery, Jr., 
 J. E. Peralta, F. Ogliaro, M. Bearpark, J. J. Heyd, E. Brothers, 
 K. N. Kudin, V. N. Staroverov, T. Keith, R. Kobayashi, J. Normand, 
 K. Raghavachari, A. Rendell, J. C. Burant, S. S. Iyengar, J. Tomasi, 
 M. Cossi, N. Rega, J. M. Millam, M. Klene, J. E. Knox, J. B. Cross, 
 V. Bakken, C. Adamo, J. Jaramillo, R. Gomperts, R. E. Stratmann, 
 O. Yazyev, A. J. Austin, R. Cammi, C. Pomelli, J. W. Ochterski, 
 R. L. Martin, K. Morokuma, V. G. Zakrzewski, G. A. Voth, 
 P. Salvador, J. J. Dannenberg, S. Dapprich, A. D. Daniels, 
 O. Farkas, J. B. Foresman, J. V. Ortiz, J. Cioslowski, 
 and D. J. Fox, Gaussian, Inc., Wallingford CT, 2013.
 
 ******************************************
 Gaussian 09:  AS64L-G09RevD.01 24-Apr-2013
                19-Jan-2019 
 ******************************************
 %Chk=BLIND00392_mA
 %Mem=1GB
 %NProcShared=48
 Will use up to   48 processors via shared memory.
 ---------------------------------------------
 #T M05/Gen test Massage SCF=(fermi,maxcyc=60)
 ---------------------------------------------
 -------
 M05 opt
 -------
 Symbolic Z-matrix:
 Charge =  0 Multiplicity = 1
 6                    -0.93417   0.40118   0.08655 
 6                     0.00622   1.26997  -0.53532 
 16                   -0.90313  -1.35376  -0.00145 
 16                    1.39462   0.71452  -1.48316 
 6                     0.84469  -1.64129  -0.08232 
 6                     1.75316  -0.8198   -0.6718 
 6                    -1.91435   1.14745   0.70915 
 7                    -0.19676   2.55971  -0.4203 
 16                   -1.59359   2.83017   0.44379 
 6                     1.23593  -2.87875   0.50651 
 7                     1.50306  -3.90762   0.97689 
 6                     3.13506  -1.16855  -0.72329 
 7                     4.2649   -1.42573  -0.81416 
 6                    -3.04193   0.68892   1.43266 
 7                    -3.97762   0.33035   2.02174 
 
                    Distance matrix (angstroms):
                    1          2          3          4          5
     1  C    0.000000
     2  C    1.423315   0.000000
     3  S    1.757418   2.827694   0.000000
     4  S    2.825849   1.770477   3.428253   0.000000
     5  C    2.713774   3.063280   1.773167   2.795470   0.000000
     6  C    3.047557   2.727187   2.791121   1.772288   1.359281
     7  C    1.380327   2.291783   2.789903   3.992857   4.001979
     8  N    2.336642   1.310672   3.998700   2.658358   4.341342
     9  S    2.542129   2.439721   4.263822   4.137445   5.120151
    10  C    3.955208   4.450782   2.675676   4.110426   1.425163
    11  N    5.029770   5.597745   3.642685   5.237162   2.586817
    12  C    4.436049   3.971317   4.106384   2.674416   2.424897
    13  N    5.583831   5.047859   5.232040   3.642352   3.504263
    14  C    2.517432   3.674472   3.286888   5.309014   4.778168
    15  N    3.607292   4.826214   4.047461   6.425950   5.618639
                    6          7          8          9         10
     6  C    0.000000
     7  C    4.384939   0.000000
     8  N    3.909794   2.494036   0.000000
     9  S    5.076167   1.733444   1.664607   0.000000
    10  C    2.428007   5.116215   5.699860   6.371958   0.000000
    11  N    3.509330   6.107712   6.831389   7.434461   1.162408
    12  C    1.426163   5.736923   5.009263   6.301738   2.836178
    13  N    2.587713   6.864751   5.995430   7.349618   3.609722
    14  C    5.449573   1.416040   3.876636   2.767765   5.646781
    15  N    6.435818   2.578302   5.022796   3.797715   6.306769
                   11         12         13         14         15
    11  N    0.000000
    12  C    3.613393   0.000000
    13  N    4.122555   1.162293   0.000000
    14  C    6.480188   6.800997   7.931563   0.000000
    15  N    7.006418   7.769948   8.891861   1.162367   0.000000
 Symmetry turned off by external request.
 Framework group  C1[X(C8N4S3)]
 Deg. of freedom    39
 Rotational constants (GHZ):      0.7722167      0.3388923      0.2463240
   357 basis functions,   759 primitive gaussians,   387 cartesian basis functions
    62 alpha electrons       62 beta electrons
       nuclear repulsion energy      1166.1400398786 Hartrees.
 IMHF & INEx in M05                  599485                  400514
 NAtoms=   15 NActive=   15 NUniq=   15 SFac= 1.00D+00 NAtFMM=   60 NAOKFM=F Big=F
 PrsmSu:  requested number of processors reduced to:  34 ShMem   1 Linda.
 ExpMin= 3.99D-02 ExpMax= 1.11D+05 ExpMxC= 1.07D+03 IAcc=3 IRadAn=         5 AccDes= 0.00D+00
 Harris functional with IExCor= 1009 and IRadAn=       5 diagonalized for initial guess.
 HarFok:  IExCor= 1009 AccDes= 0.00D+00 IRadAn=         5 IDoV= 1 UseB2=F ITyADJ=14
 ICtDFT=  3500011 ScaDFX=  1.000000  1.000000  1.000000  1.000000
 FoFCou: FMM=F IPFlag=           0 FMFlag=      100000 FMFlg1=           0
         NFxFlg=           0 DoJE=T BraDBF=F KetDBF=T FulRan=T
         wScrn=  0.000000 ICntrl=     500 IOpCl=  0 I1Cent=   200000004 NGrid=           0
         NMat0=    1 NMatS0=      1 NMatT0=    0 NMatD0=    1 NMtDS0=    0 NMtDT0=    0
 Symmetry not used in FoFCou.
 SCF Done:  E(RM05) =  -1724.76147570     A.U. after   17 cycles
            NFock= 17  Conv=0.51D-08     -V/T= 2.0061

 **********************************************************************

            Population analysis using the SCF density.

 **********************************************************************

 Alpha  occ. eigenvalues --  -90.56430 -90.53636 -90.53180 -15.08622 -15.05417
 Alpha  occ. eigenvalues --  -15.04969 -15.04934 -10.89945 -10.89826 -10.89735
 Alpha  occ. eigenvalues --  -10.88752 -10.87415 -10.84946 -10.84332 -10.84310
 Alpha  occ. eigenvalues --   -8.57525  -8.55036  -8.54607  -6.40063  -6.39712
 Alpha  occ. eigenvalues --   -6.39401  -6.37597  -6.37283  -6.37161  -6.36851
 Alpha  occ. eigenvalues --   -6.36822  -6.36391  -1.20533  -1.12895  -1.12139
 Alpha  occ. eigenvalues --   -1.11337  -1.07643  -1.03801  -0.98824  -0.97396
 Alpha  occ. eigenvalues --   -0.88002  -0.84555  -0.82236  -0.73686  -0.71296
 Alpha  occ. eigenvalues --   -0.67838  -0.64612  -0.59530  -0.57258  -0.55386
 Alpha  occ. eigenvalues --   -0.53385  -0.52648  -0.52242  -0.51890  -0.50883
 Alpha  occ. eigenvalues --   -0.50387  -0.49356  -0.48215  -0.46805  -0.46074
 Alpha  occ. eigenvalues --   -0.45933  -0.45296  -0.43720  -0.43113  -0.39488
 Alpha  occ. eigenvalues --   -0.37627  -0.33119
 Alpha virt. eigenvalues --   -0.09329  -0.08268  -0.02099  -0.01263  -0.00504
 Alpha virt. eigenvalues --   -0.00361   0.00153   0.01255   0.02019   0.02229
 Alpha virt. eigenvalues --    0.02395   0.02956   0.03187   0.04003   0.04279
 Alpha virt. eigenvalues --    0.04488   0.05428   0.06008   0.06299   0.07068
 Alpha virt. eigenvalues --    0.07268   0.07527   0.07706   0.08289   0.08493
 Alpha virt. eigenvalues --    0.09377   0.10093   0.10392   0.10524   0.10810
 Alpha virt. eigenvalues --    0.11287   0.11392   0.11978   0.12526   0.13229
 Alpha virt. eigenvalues --    0.13495   0.13938   0.14453   0.15078   0.15188
 Alpha virt. eigenvalues --    0.15900   0.16272   0.16679   0.16812   0.17192
 Alpha virt. eigenvalues --    0.17360   0.17840   0.18611   0.19051   0.19562
 Alpha virt. eigenvalues --    0.19863   0.20233   0.20687   0.20951   0.21271
 Alpha virt. eigenvalues --    0.21883   0.22209   0.22586   0.22824   0.23617
 Alpha virt. eigenvalues --    0.23748   0.24115   0.24368   0.24703   0.25259
 Alpha virt. eigenvalues --    0.25693   0.25851   0.26228   0.26622   0.26749
 Alpha virt. eigenvalues --    0.27065   0.28335   0.29194   0.29662   0.30364
 Alpha virt. eigenvalues --    0.30708   0.32418   0.33458   0.34153   0.34714
 Alpha virt. eigenvalues --    0.34952   0.35472   0.36121   0.36938   0.37595
 Alpha virt. eigenvalues --    0.38152   0.39579   0.40727   0.41170   0.42050
 Alpha virt. eigenvalues --    0.42116   0.43485   0.44135   0.45736   0.45981
 Alpha virt. eigenvalues --    0.46961   0.48555   0.49574   0.50233   0.50590
 Alpha virt. eigenvalues --    0.51525   0.51859   0.53528   0.54166   0.54422
 Alpha virt. eigenvalues --    0.54702   0.55468   0.55733   0.55838   0.56451
 Alpha virt. eigenvalues --    0.57769   0.58137   0.58557   0.59216   0.60316
 Alpha virt. eigenvalues --    0.60554   0.61099   0.61588   0.62107   0.62709
 Alpha virt. eigenvalues --    0.63716   0.64716   0.64957   0.66006   0.66557
 Alpha virt. eigenvalues --    0.67688   0.68189   0.68804   0.70106   0.70417
 Alpha virt. eigenvalues --    0.71046   0.72860   0.73472   0.73853   0.75367
 Alpha virt. eigenvalues --    0.75564   0.76454   0.77063   0.77553   0.77842
 Alpha virt. eigenvalues --    0.78246   0.79254   0.79759   0.79881   0.81107
 Alpha virt. eigenvalues --    0.81536   0.82545   0.83277   0.83956   0.84871
 Alpha virt. eigenvalues --    0.85699   0.85940   0.87122   0.87246   0.88405
 Alpha virt. eigenvalues --    0.88458   0.89345   0.89667   0.89828   0.90730
 Alpha virt. eigenvalues --    0.91172   0.91722   0.92828   0.93721   0.94366
 Alpha virt. eigenvalues --    0.95431   0.95565   0.97326   0.98743   0.99314
 Alpha virt. eigenvalues --    0.99847   1.01205   1.02846   1.03573   1.04751
 Alpha virt. eigenvalues --    1.05757   1.06745   1.08038   1.08543   1.09634
 Alpha virt. eigenvalues --    1.10235   1.11400   1.13197   1.13607   1.14403
 Alpha virt. eigenvalues --    1.15323   1.17104   1.18343   1.20284   1.20631
 Alpha virt. eigenvalues --    1.21609   1.22700   1.23934   1.24218   1.26557
 Alpha virt. eigenvalues --    1.27347   1.29760   1.30251   1.32272   1.34128
 Alpha virt. eigenvalues --    1.37313   1.40083   1.40257   1.41565   1.42728
 Alpha virt. eigenvalues --    1.43615   1.45024   1.46463   1.47274   1.49372
 Alpha virt. eigenvalues --    1.49823   1.50473   1.51641   1.51870   1.52334
 Alpha virt. eigenvalues --    1.53717   1.54192   1.55429   1.56138   1.56449
 Alpha virt. eigenvalues --    1.56791   1.58488   1.59730   1.60390   1.60518
 Alpha virt. eigenvalues --    1.62128   1.63280   1.64921   1.66026   1.67546
 Alpha virt. eigenvalues --    1.68613   1.69175   1.70470   1.71324   1.74155
 Alpha virt. eigenvalues --    1.76825   1.77079   1.79017   1.79376   1.81042
 Alpha virt. eigenvalues --    1.82957   1.85921   1.88148   1.89705   1.90607
 Alpha virt. eigenvalues --    1.91371   1.94486   1.95006   1.97391   2.00539
 Alpha virt. eigenvalues --    2.00826   2.05447   2.07036   2.08351   2.08471
 Alpha virt. eigenvalues --    2.10897   2.13937   2.18607   2.20233   2.24592
 Alpha virt. eigenvalues --    2.27644   2.30686   2.37026   2.37401   2.38001
 Alpha virt. eigenvalues --    2.38279   2.39370   2.39930   2.40470   2.42150
 Alpha virt. eigenvalues --    2.42560   2.43754   2.45056   2.51018   2.54995
 Alpha virt. eigenvalues --    2.61156   2.64127   2.68329   2.71898   2.73263
 Alpha virt. eigenvalues --    2.76308   2.78780   2.81841   2.94679   2.99730
 Alpha virt. eigenvalues --    3.01877   3.09941   3.11447   3.15939   3.17848
 Alpha virt. eigenvalues --    3.24294   3.27129   3.35293   3.59307   3.74895
          Condensed to atoms (all electrons):
 Mulliken charges:
               1
     1  C    0.620451
     2  C   -0.109579
     3  S    0.374180
     4  S    0.297138
     5  C    1.039341
     6  C    1.132004
     7  C    0.786390
     8  N   -1.083471
     9  S    0.557436
    10  C   -1.129904
    11  N   -0.168056
    12  C   -1.099644
    13  N   -0.180491
    14  C   -0.852841
    15  N   -0.182953
 Sum of Mulliken charges =  -0.00000
 Mulliken charges with hydrogens summed into heavy atoms:
               1
     1  C    0.620451
     2  C   -0.109579
     3  S    0.374180
     4  S    0.297138
     5  C    1.039341
     6  C    1.132004
     7  C    0.786390
     8  N   -1.083471
     9  S    0.557436
    10  C   -1.129904
    11  N   -0.168056
    12  C   -1.099644
    13  N   -0.180491
    14  C   -0.852841
    15  N   -0.182953
 Electronic spatial extent (au):  <R**2>=           4013.7183
 Charge=             -0.0000 electrons
 Dipole moment (field-independent basis, Debye):
    X=             -2.1403    Y=              3.7781    Z=             -1.7599  Tot=              4.6853

 Test job not archived.
 1\1\GINC-CHIMERA-NODE41\SP\RM05\Gen\C8N4S3\CONNORNM\19-Jan-2019\0\\#T 
 M05/Gen test Massage SCF=(fermi,maxcyc=60)\\M05 opt\\0,1\C,0,-0.934169
 ,0.40118101,0.08655046\C,0,0.00621548,1.26996526,-0.53531578\S,0,-0.90
 313484,-1.35375764,-0.00144864\S,0,1.39461679,0.71452191,-1.48316219\C
 ,0,0.84469403,-1.6412934,-0.08231595\C,0,1.75315511,-0.81980091,-0.671
 80097\C,0,-1.91434651,1.14745339,0.70915211\N,0,-0.1967595,2.55970619,
 -0.42029615\S,0,-1.5935852,2.83016612,0.4437908\C,0,1.23593285,-2.8787
 5184,0.50651208\N,0,1.50305843,-3.90762349,0.97689499\C,0,3.13506179,-
 1.16854794,-0.72329248\N,0,4.26489692,-1.42572679,-0.81416467\C,0,-3.0
 4193381,0.68891519,1.43265611\N,0,-3.9776176,0.33034579,2.02173992\\Ve
 rsion=AS64L-G09RevD.01\HF=-1724.7614757\RMSD=5.121e-09\Dipole=-0.84204
 24,1.4864237,-0.6924131\Quadrupole=-9.7104958,2.0843751,7.6261207,3.87
 39638,5.1532513,4.3394323\PG=C01 [X(C8N4S3)]\\@


 THE THINKER DIES, BUT HIS THOUGHTS ARE BEYOND THE 
 REACH OF DESTRUCTION.  MEN ARE MORTAL; BUT IDEAS 
 ARE IMMORTAL.
                              -- WALTER LIPPMANN
 Job cpu time:       0 days  1 hours 37 minutes 37.3 seconds.
 File lengths (MBytes):  RWF=     58 Int=      0 D2E=      0 Chk=      6 Scr=      1
 Normal termination of Gaussian 09 at Sat Jan 19 10:42:46 2019.
