 Entering Gaussian System, Link 0=/data/szalewicgrp/connornm/opt/Gaussian/g09-M05-par/g09/g09
 AtFile(1): blind-aug.gbs
 Initial command:
 /data/szalewicgrp/connornm/opt/Gaussian/g09-M05-par/g09/l1.exe "/scratch/local/Gau-27037.inp" -scrdir="/scratch/local/"
 Entering Link 1 = /data/szalewicgrp/connornm/opt/Gaussian/g09-M05-par/g09/l1.exe PID=     27038.
  
 Copyright (c) 1988,1990,1992,1993,1995,1998,2003,2009,2013,
            Gaussian, Inc.  All Rights Reserved.
  
 This is part of the Gaussian(R) 09 program.  It is based on
 the Gaussian(R) 03 system (copyright 2003, Gaussian, Inc.),
 the Gaussian(R) 98 system (copyright 1998, Gaussian, Inc.),
 the Gaussian(R) 94 system (copyright 1995, Gaussian, Inc.),
 the Gaussian 92(TM) system (copyright 1992, Gaussian, Inc.),
 the Gaussian 90(TM) system (copyright 1990, Gaussian, Inc.),
 the Gaussian 88(TM) system (copyright 1988, Gaussian, Inc.),
 the Gaussian 86(TM) system (copyright 1986, Carnegie Mellon
 University), and the Gaussian 82(TM) system (copyright 1983,
 Carnegie Mellon University). Gaussian is a federally registered
 trademark of Gaussian, Inc.
  
 This software contains proprietary and confidential information,
 including trade secrets, belonging to Gaussian, Inc.
  
 This software is provided under written license and may be
 used, copied, transmitted, or stored only in accord with that
 written license.
  
 The following legend is applicable only to US Government
 contracts under FAR:
  
                    RESTRICTED RIGHTS LEGEND
  
 Use, reproduction and disclosure by the US Government is
 subject to restrictions as set forth in subparagraphs (a)
 and (c) of the Commercial Computer Software - Restricted
 Rights clause in FAR 52.227-19.
  
 Gaussian, Inc.
 340 Quinnipiac St., Bldg. 40, Wallingford CT 06492
  
  
 ---------------------------------------------------------------
 Warning -- This program may not be used in any manner that
 competes with the business of Gaussian, Inc. or will provide
 assistance to any competitor of Gaussian, Inc.  The licensee
 of this program is prohibited from giving any competitor of
 Gaussian, Inc. access to this program.  By using this program,
 the user acknowledges that Gaussian, Inc. is engaged in the
 business of creating and licensing software in the field of
 computational chemistry and represents and warrants to the
 licensee that it is not a competitor of Gaussian, Inc. and that
 it will not use this program in any manner prohibited above.
 ---------------------------------------------------------------
  

 Cite this work as:
 Gaussian 09, Revision D.01,
 M. J. Frisch, G. W. Trucks, H. B. Schlegel, G. E. Scuseria, 
 M. A. Robb, J. R. Cheeseman, G. Scalmani, V. Barone, B. Mennucci, 
 G. A. Petersson, H. Nakatsuji, M. Caricato, X. Li, H. P. Hratchian, 
 A. F. Izmaylov, J. Bloino, G. Zheng, J. L. Sonnenberg, M. Hada, 
 M. Ehara, K. Toyota, R. Fukuda, J. Hasegawa, M. Ishida, T. Nakajima, 
 Y. Honda, O. Kitao, H. Nakai, T. Vreven, J. A. Montgomery, Jr., 
 J. E. Peralta, F. Ogliaro, M. Bearpark, J. J. Heyd, E. Brothers, 
 K. N. Kudin, V. N. Staroverov, T. Keith, R. Kobayashi, J. Normand, 
 K. Raghavachari, A. Rendell, J. C. Burant, S. S. Iyengar, J. Tomasi, 
 M. Cossi, N. Rega, J. M. Millam, M. Klene, J. E. Knox, J. B. Cross, 
 V. Bakken, C. Adamo, J. Jaramillo, R. Gomperts, R. E. Stratmann, 
 O. Yazyev, A. J. Austin, R. Cammi, C. Pomelli, J. W. Ochterski, 
 R. L. Martin, K. Morokuma, V. G. Zakrzewski, G. A. Voth, 
 P. Salvador, J. J. Dannenberg, S. Dapprich, A. D. Daniels, 
 O. Farkas, J. B. Foresman, J. V. Ortiz, J. Cioslowski, 
 and D. J. Fox, Gaussian, Inc., Wallingford CT, 2013.
 
 ******************************************
 Gaussian 09:  AS64L-G09RevD.01 24-Apr-2013
                20-Jan-2019 
 ******************************************
 %Chk=BLIND01697
 %Mem=1GB
 %NProcShared=48
 Will use up to   48 processors via shared memory.
 ---------------------------------------------
 #T M05/Gen test Massage SCF=(fermi,maxcyc=60)
 ---------------------------------------------
 -------
 M05 opt
 -------
 Symbolic Z-matrix:
 Charge =  0 Multiplicity = 1
 6                    -0.44587   0.91682  -0.04188 
 6                    -0.00222   0.43808  -1.30671 
 16                   -0.98818  -0.09395   1.28957 
 16                    0.10632  -1.27598  -1.73662 
 6                     0.03453  -1.52203   1.04708 
 6                     0.46581  -1.989    -0.15441 
 6                    -0.45332   2.29712  -0.04468 
 7                     0.31145   1.33125  -2.21319 
 16                    0.05792   2.85902  -1.6028 
 6                     0.34698  -2.19914   2.26157 
 7                     0.55488  -2.72975   3.27469 
 6                     1.24826  -3.17805  -0.2431 
 7                     1.8623   -4.15734  -0.3651 
 6                    -0.83371   3.17634   0.99812 
 7                    -1.15089   3.91263   1.83977 
 6                     0.59471  -0.74879   8.26136 
 6                     0.8447    0.51602   7.65839 
 16                    0.02933  -0.99136   9.90757 
 16                    0.5926    2.06937   8.46967 
 6                    -0.98234   0.44984   10.11628 
 6                    -0.75557   1.66257   9.54575 
 6                     0.93177  -1.75727   7.3812 
 7                     1.32245   0.5182    6.4379 
 16                    1.54258  -1.04897   5.92173 
 6                    -2.07702   0.2411    11.00465 
 7                    -2.94036   0.02943   11.75367 
 6                    -1.60733   2.77369   9.81753 
 7                    -2.25717   3.71293   10.03306 
 6                     0.85291  -3.15753   7.57668 
 7                     0.80366  -4.30958   7.72313 
 
                    Distance matrix (angstroms):
                    1          2          3          4          5
     1  C    0.000000
     2  C    1.423315   0.000000
     3  S    1.757418   2.827694   0.000000
     4  S    2.825849   1.770477   3.428253   0.000000
     5  C    2.713774   3.063280   1.773167   2.795470   0.000000
     6  C    3.047557   2.727187   2.791121   1.772288   1.359281
     7  C    1.380327   2.291783   2.789903   3.992857   4.001979
     8  N    2.336642   1.310672   3.998700   2.658358   4.341342
     9  S    2.542129   2.439721   4.263822   4.137445   5.120151
    10  C    3.955208   4.450782   2.675676   4.110426   1.425163
    11  N    5.029770   5.597745   3.642685   5.237162   2.586817
    12  C    4.436049   3.971317   4.106384   2.674416   2.424897
    13  N    5.583831   5.047859   5.232040   3.642352   3.504263
    14  C    2.517432   3.674472   3.286888   5.309014   4.778168
    15  N    3.607292   4.826214   4.047461   6.425950   5.618639
    16  C    8.532340   9.659865   7.179152  10.023770   7.277193
    17  C    7.817952   9.005358   6.655332   9.592846   6.965594
    18  S   10.141922  11.305066   8.724145  11.647923   8.876374
    19  S    8.651773   9.929376   7.663722  10.751559   8.264644
    20  C   10.183031  11.464974   8.843452  12.027256   9.336636
    21  C    9.621575  10.947279   8.444173  11.690585   9.110069
    22  C    8.009416   9.009536   6.600063   9.167749   6.401680
    23  N    6.728544   7.857489   5.676180   8.456992   5.906114
    24  S    6.586571   7.539771   5.364119   7.795171   5.124477
    25  C   11.186738  12.486526   9.781651  13.015700  10.330562
    26  N   12.089041  13.393031  10.645358  13.891515  11.219985
    27  C   10.099745  11.479556   9.018471  12.362633   9.903012
    28  N   10.611481  12.016656   9.620365  13.000028  10.649159
    29  C    8.736681   9.621554   7.232074   9.530746   6.780880
    30  N    9.443092  10.233660   7.897655   9.958708   7.275420
                    6          7          8          9         10
     6  C    0.000000
     7  C    4.384939   0.000000
     8  N    3.909794   2.494036   0.000000
     9  S    5.076167   1.733444   1.664607   0.000000
    10  C    2.428007   5.116215   5.699860   6.371958   0.000000
    11  N    3.509330   6.107712   6.831389   7.434461   1.162408
    12  C    1.426163   5.736923   5.009263   6.301738   2.836178
    13  N    2.587713   6.864751   5.995430   7.349618   3.609722
    14  C    5.449573   1.416040   3.876636   2.767765   5.646781
    15  N    6.435818   2.578302   5.022796   3.797715   6.306769
    16  C    8.507638   8.908777  10.682840  10.516944   6.177573
    17  C    8.213319   8.012149   9.919535   9.585321   6.061815
    18  S   10.120738  10.492593  12.344519  12.137339   7.747327
    19  S    9.532110   8.581372  10.712018  10.117512   7.537971
    20  C   10.655151  10.341061  12.428466  12.009298   8.395285
    21  C   10.436422   9.616155  11.811905  11.242042   8.317921
    22  C    7.553561   8.573233  10.098325  10.138344   5.171839
    23  N    7.104816   6.952821   8.747829   8.469431   5.077129
    24  S    6.242005   7.125874   8.564938   8.607857   4.018605
    25  C   11.660360  11.355680  13.476078  13.052180   9.395323
    26  N   12.549040  12.269025  14.399386  13.978256  10.289468
    27  C   11.243695   9.940929  12.267869  11.541417   9.254239
    28  N   11.987964  10.335346  12.737387  11.894630  10.105959
    29  C    7.828479   9.462804  10.783505  11.004260   5.424475
    30  N    8.219181  10.274605  11.436426  11.786347   5.872924
                   11         12         13         14         15
    11  N    0.000000
    12  C    3.613393   0.000000
    13  N    4.122555   1.162293   0.000000
    14  C    6.480188   6.800997   7.931563   0.000000
    15  N    7.006418   7.769948   8.891861   1.162367   0.000000
    16  C    5.365873   8.868720   9.361663   8.378645   8.124831
    17  C    5.462221   8.731701   9.340891   7.365702   7.026788
    18  S    6.877011  10.454832  10.904631   9.873851   9.514811
    19  S    7.072528  10.192032  10.882878   7.686594   7.098801
    20  C    7.699363  11.200624  11.797350   9.518231   8.973296
    21  C    7.767620  11.102636  11.787686   8.680989   8.037491
    22  C    4.236884   7.762006   8.162806   8.258398   8.197120
    23  N    4.598282   7.635671   8.272416   6.426964   6.227549
    24  S    3.287460   6.528763   7.020571   6.909557   6.966690
    25  C    8.689364  12.217198  12.811545  10.502006   9.916301
    26  N    9.577200  13.105528  13.691570  11.402756  10.796618
    27  C    8.818823  12.033030  12.797006   8.862422   8.071567
    28  N    9.751477  12.859751  13.676000   9.162113   8.270057
    29  C    4.333464   7.829792   8.067858   9.286552   9.322802
    30  N    4.727196   8.058464   8.158639  10.195381  10.297528
                   16         17         18         19         20
    16  C    0.000000
    17  C    1.423315   0.000000
    18  S    1.757418   2.827694   0.000000
    19  S    2.825849   1.770477   3.428253   0.000000
    20  C    2.713774   3.063280   1.773167   2.795470   0.000000
    21  C    3.047557   2.727187   2.791121   1.772288   1.359281
    22  C    1.380327   2.291783   2.789903   3.992857   4.001979
    23  N    2.336642   1.310672   3.998700   2.658358   4.341342
    24  S    2.542129   2.439721   4.263822   4.137445   5.120151
    25  C    3.955208   4.450782   2.675676   4.110426   1.425163
    26  N    5.029770   5.597745   3.642685   5.237162   2.586817
    27  C    4.436049   3.971317   4.106384   2.674416   2.424897
    28  N    5.583831   5.047859   5.232040   3.642352   3.504263
    29  C    2.517432   3.674472   3.286888   5.309014   4.778168
    30  N    3.607292   4.826214   4.047461   6.425950   5.618639
                   21         22         23         24         25
    21  C    0.000000
    22  C    4.384939   0.000000
    23  N    3.909794   2.494036   0.000000
    24  S    5.076167   1.733444   1.664607   0.000000
    25  C    2.428007   5.116215   5.699860   6.371958   0.000000
    26  N    3.509330   6.107712   6.831389   7.434461   1.162408
    27  C    1.426163   5.736923   5.009263   6.301738   2.836178
    28  N    2.587713   6.864751   5.995430   7.349618   3.609722
    29  C    5.449573   1.416040   3.876636   2.767765   5.646781
    30  N    6.435818   2.578302   5.022796   3.797715   6.306769
                   26         27         28         29         30
    26  N    0.000000
    27  C    3.613393   0.000000
    28  N    4.122555   1.162293   0.000000
    29  C    6.480188   6.800997   7.931563   0.000000
    30  N    7.006418   7.769948   8.891861   1.162367   0.000000
 Symmetry turned off by external request.
 Framework group  C1[X(C16N8S6)]
 Deg. of freedom    84
 Rotational constants (GHZ):      0.1769758      0.0462948      0.0387777
   714 basis functions,  1518 primitive gaussians,   774 cartesian basis functions
   124 alpha electrons      124 beta electrons
       nuclear repulsion energy      3271.8608968913 Hartrees.
 IMHF & INEx in M05                  599485                  400514
 NAtoms=   30 NActive=   30 NUniq=   30 SFac= 1.00D+00 NAtFMM=   60 NAOKFM=F Big=F
 PrsmSu:  requested number of processors reduced to:  26 ShMem   1 Linda.
 ExpMin= 3.99D-02 ExpMax= 1.11D+05 ExpMxC= 1.07D+03 IAcc=3 IRadAn=         5 AccDes= 0.00D+00
 Harris functional with IExCor= 1009 and IRadAn=       5 diagonalized for initial guess.
 HarFok:  IExCor= 1009 AccDes= 0.00D+00 IRadAn=         5 IDoV= 1 UseB2=F ITyADJ=14
 ICtDFT=  3500011 ScaDFX=  1.000000  1.000000  1.000000  1.000000
 FoFCou: FMM=F IPFlag=           0 FMFlag=      100000 FMFlg1=           0
         NFxFlg=           0 DoJE=T BraDBF=F KetDBF=T FulRan=T
         wScrn=  0.000000 ICntrl=     500 IOpCl=  0 I1Cent=   200000004 NGrid=           0
         NMat0=    1 NMatS0=      1 NMatT0=    0 NMatD0=    1 NMtDS0=    0 NMtDT0=    0
 Symmetry not used in FoFCou.
