 Entering Gaussian System, Link 0=/data/szalewicgrp/connornm/opt/Gaussian/g09-M05-par/g09/g09
 AtFile(1): blind-aug.gbs
 Initial command:
 /data/szalewicgrp/connornm/opt/Gaussian/g09-M05-par/g09/l1.exe "/scratch/local/Gau-42824.inp" -scrdir="/scratch/local/"
 Entering Link 1 = /data/szalewicgrp/connornm/opt/Gaussian/g09-M05-par/g09/l1.exe PID=     42825.
  
 Copyright (c) 1988,1990,1992,1993,1995,1998,2003,2009,2013,
            Gaussian, Inc.  All Rights Reserved.
  
 This is part of the Gaussian(R) 09 program.  It is based on
 the Gaussian(R) 03 system (copyright 2003, Gaussian, Inc.),
 the Gaussian(R) 98 system (copyright 1998, Gaussian, Inc.),
 the Gaussian(R) 94 system (copyright 1995, Gaussian, Inc.),
 the Gaussian 92(TM) system (copyright 1992, Gaussian, Inc.),
 the Gaussian 90(TM) system (copyright 1990, Gaussian, Inc.),
 the Gaussian 88(TM) system (copyright 1988, Gaussian, Inc.),
 the Gaussian 86(TM) system (copyright 1986, Carnegie Mellon
 University), and the Gaussian 82(TM) system (copyright 1983,
 Carnegie Mellon University). Gaussian is a federally registered
 trademark of Gaussian, Inc.
  
 This software contains proprietary and confidential information,
 including trade secrets, belonging to Gaussian, Inc.
  
 This software is provided under written license and may be
 used, copied, transmitted, or stored only in accord with that
 written license.
  
 The following legend is applicable only to US Government
 contracts under FAR:
  
                    RESTRICTED RIGHTS LEGEND
  
 Use, reproduction and disclosure by the US Government is
 subject to restrictions as set forth in subparagraphs (a)
 and (c) of the Commercial Computer Software - Restricted
 Rights clause in FAR 52.227-19.
  
 Gaussian, Inc.
 340 Quinnipiac St., Bldg. 40, Wallingford CT 06492
  
  
 ---------------------------------------------------------------
 Warning -- This program may not be used in any manner that
 competes with the business of Gaussian, Inc. or will provide
 assistance to any competitor of Gaussian, Inc.  The licensee
 of this program is prohibited from giving any competitor of
 Gaussian, Inc. access to this program.  By using this program,
 the user acknowledges that Gaussian, Inc. is engaged in the
 business of creating and licensing software in the field of
 computational chemistry and represents and warrants to the
 licensee that it is not a competitor of Gaussian, Inc. and that
 it will not use this program in any manner prohibited above.
 ---------------------------------------------------------------
  

 Cite this work as:
 Gaussian 09, Revision D.01,
 M. J. Frisch, G. W. Trucks, H. B. Schlegel, G. E. Scuseria, 
 M. A. Robb, J. R. Cheeseman, G. Scalmani, V. Barone, B. Mennucci, 
 G. A. Petersson, H. Nakatsuji, M. Caricato, X. Li, H. P. Hratchian, 
 A. F. Izmaylov, J. Bloino, G. Zheng, J. L. Sonnenberg, M. Hada, 
 M. Ehara, K. Toyota, R. Fukuda, J. Hasegawa, M. Ishida, T. Nakajima, 
 Y. Honda, O. Kitao, H. Nakai, T. Vreven, J. A. Montgomery, Jr., 
 J. E. Peralta, F. Ogliaro, M. Bearpark, J. J. Heyd, E. Brothers, 
 K. N. Kudin, V. N. Staroverov, T. Keith, R. Kobayashi, J. Normand, 
 K. Raghavachari, A. Rendell, J. C. Burant, S. S. Iyengar, J. Tomasi, 
 M. Cossi, N. Rega, J. M. Millam, M. Klene, J. E. Knox, J. B. Cross, 
 V. Bakken, C. Adamo, J. Jaramillo, R. Gomperts, R. E. Stratmann, 
 O. Yazyev, A. J. Austin, R. Cammi, C. Pomelli, J. W. Ochterski, 
 R. L. Martin, K. Morokuma, V. G. Zakrzewski, G. A. Voth, 
 P. Salvador, J. J. Dannenberg, S. Dapprich, A. D. Daniels, 
 O. Farkas, J. B. Foresman, J. V. Ortiz, J. Cioslowski, 
 and D. J. Fox, Gaussian, Inc., Wallingford CT, 2013.
 
 ******************************************
 Gaussian 09:  AS64L-G09RevD.01 24-Apr-2013
                19-Jan-2019 
 ******************************************
 %Chk=BLIND00308_mA
 %Mem=1GB
 %NProcShared=48
 Will use up to   48 processors via shared memory.
 ---------------------------------------------
 #T M05/Gen test Massage SCF=(fermi,maxcyc=60)
 ---------------------------------------------
 -------
 M05 opt
 -------
 Symbolic Z-matrix:
 Charge =  0 Multiplicity = 1
 6                    -0.40354  -0.80509   0.47968 
 6                    -0.36534   0.37469   1.27497 
 16                   -0.57341  -0.84194  -1.26912 
 16                   -0.45182   2.01691   0.61904 
 6                     0.27947   0.64969  -1.70702 
 6                     0.32471   1.78221  -0.95669 
 6                    -0.35892  -1.91698   1.29639 
 7                    -0.29498   0.22342   2.57498 
 16                   -0.30174  -1.39849   2.94949 
 6                     0.90549   0.58146  -2.98551 
 7                     1.3786    0.48633  -4.04302 
 6                     1.00172   2.94717  -1.42408 
 7                     1.51601   3.92778  -1.7774 
 6                    -0.38595  -3.28293   0.92407 
 7                    -0.41646  -4.40892   0.63717 
 
                    Distance matrix (angstroms):
                    1          2          3          4          5
     1  C    0.000000
     2  C    1.423315   0.000000
     3  S    1.757418   2.827694   0.000000
     4  S    2.825849   1.770477   3.428253   0.000000
     5  C    2.713774   3.063280   1.773167   2.795470   0.000000
     6  C    3.047557   2.727187   2.791121   1.772288   1.359281
     7  C    1.380327   2.291783   2.789903   3.992857   4.001979
     8  N    2.336642   1.310672   3.998700   2.658358   4.341342
     9  S    2.542129   2.439721   4.263822   4.137445   5.120151
    10  C    3.955208   4.450782   2.675676   4.110426   1.425163
    11  N    5.029770   5.597745   3.642685   5.237162   2.586817
    12  C    4.436049   3.971317   4.106384   2.674416   2.424897
    13  N    5.583831   5.047859   5.232040   3.642352   3.504263
    14  C    2.517432   3.674472   3.286888   5.309014   4.778168
    15  N    3.607292   4.826214   4.047461   6.425950   5.618639
                    6          7          8          9         10
     6  C    0.000000
     7  C    4.384939   0.000000
     8  N    3.909794   2.494036   0.000000
     9  S    5.076167   1.733444   1.664607   0.000000
    10  C    2.428007   5.116215   5.699860   6.371958   0.000000
    11  N    3.509330   6.107712   6.831389   7.434461   1.162408
    12  C    1.426163   5.736923   5.009263   6.301738   2.836178
    13  N    2.587713   6.864751   5.995430   7.349618   3.609722
    14  C    5.449573   1.416040   3.876636   2.767765   5.646781
    15  N    6.435818   2.578302   5.022796   3.797715   6.306769
                   11         12         13         14         15
    11  N    0.000000
    12  C    3.613393   0.000000
    13  N    4.122555   1.162293   0.000000
    14  C    6.480188   6.800997   7.931563   0.000000
    15  N    7.006418   7.769948   8.891861   1.162367   0.000000
 Symmetry turned off by external request.
 Framework group  C1[X(C8N4S3)]
 Deg. of freedom    39
 Rotational constants (GHZ):      0.7722167      0.3388923      0.2463240
   357 basis functions,   759 primitive gaussians,   387 cartesian basis functions
    62 alpha electrons       62 beta electrons
       nuclear repulsion energy      1166.1400386872 Hartrees.
 IMHF & INEx in M05                  599485                  400514
 NAtoms=   15 NActive=   15 NUniq=   15 SFac= 1.00D+00 NAtFMM=   60 NAOKFM=F Big=F
 PrsmSu:  requested number of processors reduced to:  34 ShMem   1 Linda.
 ExpMin= 3.99D-02 ExpMax= 1.11D+05 ExpMxC= 1.07D+03 IAcc=3 IRadAn=         5 AccDes= 0.00D+00
 Harris functional with IExCor= 1009 and IRadAn=       5 diagonalized for initial guess.
 HarFok:  IExCor= 1009 AccDes= 0.00D+00 IRadAn=         5 IDoV= 1 UseB2=F ITyADJ=14
 ICtDFT=  3500011 ScaDFX=  1.000000  1.000000  1.000000  1.000000
 FoFCou: FMM=F IPFlag=           0 FMFlag=      100000 FMFlg1=           0
         NFxFlg=           0 DoJE=T BraDBF=F KetDBF=T FulRan=T
         wScrn=  0.000000 ICntrl=     500 IOpCl=  0 I1Cent=   200000004 NGrid=           0
         NMat0=    1 NMatS0=      1 NMatT0=    0 NMatD0=    1 NMtDS0=    0 NMtDT0=    0
 Symmetry not used in FoFCou.
 SCF Done:  E(RM05) =  -1724.76147072     A.U. after   17 cycles
            NFock= 17  Conv=0.52D-08     -V/T= 2.0061

 **********************************************************************

            Population analysis using the SCF density.

 **********************************************************************

 Alpha  occ. eigenvalues --  -90.56430 -90.53636 -90.53183 -15.08621 -15.05416
 Alpha  occ. eigenvalues --  -15.04969 -15.04934 -10.89944 -10.89826 -10.89736
 Alpha  occ. eigenvalues --  -10.88752 -10.87414 -10.84946 -10.84331 -10.84311
 Alpha  occ. eigenvalues --   -8.57525  -8.55036  -8.54610  -6.40063  -6.39712
 Alpha  occ. eigenvalues --   -6.39401  -6.37597  -6.37283  -6.37164  -6.36854
 Alpha  occ. eigenvalues --   -6.36822  -6.36393  -1.20533  -1.12895  -1.12139
 Alpha  occ. eigenvalues --   -1.11337  -1.07643  -1.03801  -0.98824  -0.97396
 Alpha  occ. eigenvalues --   -0.88003  -0.84555  -0.82236  -0.73686  -0.71296
 Alpha  occ. eigenvalues --   -0.67838  -0.64612  -0.59530  -0.57258  -0.55386
 Alpha  occ. eigenvalues --   -0.53384  -0.52647  -0.52243  -0.51890  -0.50883
 Alpha  occ. eigenvalues --   -0.50387  -0.49356  -0.48215  -0.46804  -0.46074
 Alpha  occ. eigenvalues --   -0.45933  -0.45296  -0.43720  -0.43113  -0.39488
 Alpha  occ. eigenvalues --   -0.37627  -0.33120
 Alpha virt. eigenvalues --   -0.09329  -0.08268  -0.02098  -0.01264  -0.00502
 Alpha virt. eigenvalues --   -0.00363   0.00152   0.01255   0.02021   0.02229
 Alpha virt. eigenvalues --    0.02394   0.02957   0.03190   0.04001   0.04275
 Alpha virt. eigenvalues --    0.04487   0.05427   0.06006   0.06298   0.07067
 Alpha virt. eigenvalues --    0.07272   0.07525   0.07708   0.08289   0.08492
 Alpha virt. eigenvalues --    0.09375   0.10094   0.10394   0.10525   0.10814
 Alpha virt. eigenvalues --    0.11288   0.11392   0.11977   0.12527   0.13228
 Alpha virt. eigenvalues --    0.13491   0.13937   0.14453   0.15077   0.15189
 Alpha virt. eigenvalues --    0.15902   0.16273   0.16675   0.16814   0.17185
 Alpha virt. eigenvalues --    0.17359   0.17840   0.18610   0.19051   0.19565
 Alpha virt. eigenvalues --    0.19853   0.20241   0.20680   0.20946   0.21265
 Alpha virt. eigenvalues --    0.21879   0.22206   0.22581   0.22828   0.23613
 Alpha virt. eigenvalues --    0.23740   0.24111   0.24376   0.24704   0.25259
 Alpha virt. eigenvalues --    0.25698   0.25848   0.26231   0.26622   0.26746
 Alpha virt. eigenvalues --    0.27070   0.28335   0.29194   0.29662   0.30366
 Alpha virt. eigenvalues --    0.30710   0.32420   0.33454   0.34151   0.34717
 Alpha virt. eigenvalues --    0.34946   0.35469   0.36121   0.36936   0.37593
 Alpha virt. eigenvalues --    0.38153   0.39574   0.40729   0.41171   0.42051
 Alpha virt. eigenvalues --    0.42123   0.43484   0.44135   0.45735   0.45978
 Alpha virt. eigenvalues --    0.46956   0.48550   0.49570   0.50230   0.50603
 Alpha virt. eigenvalues --    0.51522   0.51859   0.53526   0.54167   0.54426
 Alpha virt. eigenvalues --    0.54701   0.55467   0.55741   0.55838   0.56455
 Alpha virt. eigenvalues --    0.57775   0.58136   0.58558   0.59216   0.60311
 Alpha virt. eigenvalues --    0.60553   0.61102   0.61585   0.62104   0.62713
 Alpha virt. eigenvalues --    0.63713   0.64718   0.64958   0.66006   0.66559
 Alpha virt. eigenvalues --    0.67690   0.68187   0.68804   0.70109   0.70419
 Alpha virt. eigenvalues --    0.71049   0.72866   0.73466   0.73857   0.75373
 Alpha virt. eigenvalues --    0.75566   0.76458   0.77062   0.77553   0.77841
 Alpha virt. eigenvalues --    0.78247   0.79253   0.79760   0.79883   0.81109
 Alpha virt. eigenvalues --    0.81536   0.82547   0.83277   0.83959   0.84873
 Alpha virt. eigenvalues --    0.85698   0.85938   0.87124   0.87248   0.88401
 Alpha virt. eigenvalues --    0.88458   0.89345   0.89665   0.89829   0.90730
 Alpha virt. eigenvalues --    0.91170   0.91726   0.92830   0.93721   0.94367
 Alpha virt. eigenvalues --    0.95434   0.95568   0.97327   0.98747   0.99314
 Alpha virt. eigenvalues --    0.99851   1.01209   1.02849   1.03576   1.04753
 Alpha virt. eigenvalues --    1.05759   1.06747   1.08037   1.08544   1.09638
 Alpha virt. eigenvalues --    1.10233   1.11404   1.13199   1.13604   1.14405
 Alpha virt. eigenvalues --    1.15325   1.17106   1.18348   1.20285   1.20633
 Alpha virt. eigenvalues --    1.21610   1.22703   1.23935   1.24221   1.26562
 Alpha virt. eigenvalues --    1.27347   1.29759   1.30252   1.32274   1.34125
 Alpha virt. eigenvalues --    1.37313   1.40081   1.40258   1.41563   1.42729
 Alpha virt. eigenvalues --    1.43616   1.45023   1.46462   1.47273   1.49371
 Alpha virt. eigenvalues --    1.49823   1.50474   1.51642   1.51866   1.52335
 Alpha virt. eigenvalues --    1.53717   1.54190   1.55430   1.56139   1.56449
 Alpha virt. eigenvalues --    1.56791   1.58481   1.59731   1.60388   1.60514
 Alpha virt. eigenvalues --    1.62130   1.63282   1.64917   1.66030   1.67548
 Alpha virt. eigenvalues --    1.68613   1.69175   1.70470   1.71323   1.74152
 Alpha virt. eigenvalues --    1.76825   1.77080   1.79016   1.79378   1.81041
 Alpha virt. eigenvalues --    1.82958   1.85920   1.88149   1.89704   1.90608
 Alpha virt. eigenvalues --    1.91370   1.94485   1.95008   1.97395   2.00537
 Alpha virt. eigenvalues --    2.00827   2.05451   2.07036   2.08349   2.08472
 Alpha virt. eigenvalues --    2.10898   2.13937   2.18609   2.20234   2.24594
 Alpha virt. eigenvalues --    2.27646   2.30685   2.37027   2.37402   2.38002
 Alpha virt. eigenvalues --    2.38279   2.39369   2.39930   2.40470   2.42149
 Alpha virt. eigenvalues --    2.42560   2.43756   2.45057   2.51023   2.54997
 Alpha virt. eigenvalues --    2.61161   2.64123   2.68330   2.71900   2.73264
 Alpha virt. eigenvalues --    2.76309   2.78780   2.81841   2.94680   2.99730
 Alpha virt. eigenvalues --    3.01878   3.09942   3.11450   3.15939   3.17848
 Alpha virt. eigenvalues --    3.24292   3.27129   3.35293   3.59306   3.74893
          Condensed to atoms (all electrons):
 Mulliken charges:
               1
     1  C    0.621283
     2  C   -0.110348
     3  S    0.374503
     4  S    0.297155
     5  C    1.038388
     6  C    1.132114
     7  C    0.787073
     8  N   -1.083173
     9  S    0.556831
    10  C   -1.129755
    11  N   -0.167957
    12  C   -1.099925
    13  N   -0.180416
    14  C   -0.852691
    15  N   -0.183082
 Sum of Mulliken charges =  -0.00000
 Mulliken charges with hydrogens summed into heavy atoms:
               1
     1  C    0.621283
     2  C   -0.110348
     3  S    0.374503
     4  S    0.297155
     5  C    1.038388
     6  C    1.132114
     7  C    0.787073
     8  N   -1.083173
     9  S    0.556831
    10  C   -1.129755
    11  N   -0.167957
    12  C   -1.099925
    13  N   -0.180416
    14  C   -0.852691
    15  N   -0.183082
 Electronic spatial extent (au):  <R**2>=           4013.7193
 Charge=             -0.0000 electrons
 Dipole moment (field-independent basis, Debye):
    X=             -2.3880    Y=             -0.6051    Z=              3.9855  Tot=              4.6854

 Test job not archived.
 1\1\GINC-CHIMERA-NODE56\SP\RM05\Gen\C8N4S3\CONNORNM\19-Jan-2019\0\\#T 
 M05/Gen test Massage SCF=(fermi,maxcyc=60)\\M05 opt\\0,1\C,0,-0.403536
 53,-0.8050906,0.47968355\C,0,-0.36533769,0.37469227,1.27496959\S,0,-0.
 57341157,-0.84193643,-1.26911647\S,0,-0.4518173,2.01690719,0.61904294\
 C,0,0.27947319,0.64968948,-1.70702263\C,0,0.32471082,1.7822057,-0.9566
 8628\C,0,-0.35891665,-1.91698129,1.29639119\N,0,-0.2949838,0.22342482,
 2.57498056\S,0,-0.30174063,-1.39849254,2.94948734\C,0,0.90549418,0.581
 46421,-2.98551107\N,0,1.37859509,0.48633292,-4.0430169\C,0,1.00171541,
 2.94717358,-1.42407966\N,0,1.51600961,3.92778097,-1.77740211\C,0,-0.38
 594646,-3.28292826,0.92406511\N,0,-0.41646075,-4.4089199,0.63717206\\V
 ersion=AS64L-G09RevD.01\HF=-1724.7614707\RMSD=5.151e-09\Dipole=-0.9395
 167,-0.2380663,1.5680231\Quadrupole=7.9889864,-9.1540664,1.1650801,-5.
 2827595,5.7088478,1.9565227\PG=C01 [X(C8N4S3)]\\@


       THE DEATH-KNELL OF THE ATOM

 SO THE ATOMS IN TURN, WE NOW CLEARLY DISCERN,
 FLY TO BITS WITH THE UTMOST FACILITY;
 THEY WEND ON THEIR WAY, AND, IN SPLITTING, DISPLAY
 AN ABSOLUTE LACK OF STABILITY.

          SIR WM. RAMSAY, 1905
 Job cpu time:       0 days  1 hours 36 minutes 20.3 seconds.
 File lengths (MBytes):  RWF=     58 Int=      0 D2E=      0 Chk=      6 Scr=      1
 Normal termination of Gaussian 09 at Sat Jan 19 10:44:46 2019.
