 Entering Gaussian System, Link 0=/data/szalewicgrp/connornm/opt/Gaussian/g09-M05-par/g09/g09
 AtFile(1): blind-aug.gbs
 Initial command:
 /data/szalewicgrp/connornm/opt/Gaussian/g09-M05-par/g09/l1.exe "/scratch/local/Gau-20055.inp" -scrdir="/scratch/local/"
 Entering Link 1 = /data/szalewicgrp/connornm/opt/Gaussian/g09-M05-par/g09/l1.exe PID=     20056.
  
 Copyright (c) 1988,1990,1992,1993,1995,1998,2003,2009,2013,
            Gaussian, Inc.  All Rights Reserved.
  
 This is part of the Gaussian(R) 09 program.  It is based on
 the Gaussian(R) 03 system (copyright 2003, Gaussian, Inc.),
 the Gaussian(R) 98 system (copyright 1998, Gaussian, Inc.),
 the Gaussian(R) 94 system (copyright 1995, Gaussian, Inc.),
 the Gaussian 92(TM) system (copyright 1992, Gaussian, Inc.),
 the Gaussian 90(TM) system (copyright 1990, Gaussian, Inc.),
 the Gaussian 88(TM) system (copyright 1988, Gaussian, Inc.),
 the Gaussian 86(TM) system (copyright 1986, Carnegie Mellon
 University), and the Gaussian 82(TM) system (copyright 1983,
 Carnegie Mellon University). Gaussian is a federally registered
 trademark of Gaussian, Inc.
  
 This software contains proprietary and confidential information,
 including trade secrets, belonging to Gaussian, Inc.
  
 This software is provided under written license and may be
 used, copied, transmitted, or stored only in accord with that
 written license.
  
 The following legend is applicable only to US Government
 contracts under FAR:
  
                    RESTRICTED RIGHTS LEGEND
  
 Use, reproduction and disclosure by the US Government is
 subject to restrictions as set forth in subparagraphs (a)
 and (c) of the Commercial Computer Software - Restricted
 Rights clause in FAR 52.227-19.
  
 Gaussian, Inc.
 340 Quinnipiac St., Bldg. 40, Wallingford CT 06492
  
  
 ---------------------------------------------------------------
 Warning -- This program may not be used in any manner that
 competes with the business of Gaussian, Inc. or will provide
 assistance to any competitor of Gaussian, Inc.  The licensee
 of this program is prohibited from giving any competitor of
 Gaussian, Inc. access to this program.  By using this program,
 the user acknowledges that Gaussian, Inc. is engaged in the
 business of creating and licensing software in the field of
 computational chemistry and represents and warrants to the
 licensee that it is not a competitor of Gaussian, Inc. and that
 it will not use this program in any manner prohibited above.
 ---------------------------------------------------------------
  

 Cite this work as:
 Gaussian 09, Revision D.01,
 M. J. Frisch, G. W. Trucks, H. B. Schlegel, G. E. Scuseria, 
 M. A. Robb, J. R. Cheeseman, G. Scalmani, V. Barone, B. Mennucci, 
 G. A. Petersson, H. Nakatsuji, M. Caricato, X. Li, H. P. Hratchian, 
 A. F. Izmaylov, J. Bloino, G. Zheng, J. L. Sonnenberg, M. Hada, 
 M. Ehara, K. Toyota, R. Fukuda, J. Hasegawa, M. Ishida, T. Nakajima, 
 Y. Honda, O. Kitao, H. Nakai, T. Vreven, J. A. Montgomery, Jr., 
 J. E. Peralta, F. Ogliaro, M. Bearpark, J. J. Heyd, E. Brothers, 
 K. N. Kudin, V. N. Staroverov, T. Keith, R. Kobayashi, J. Normand, 
 K. Raghavachari, A. Rendell, J. C. Burant, S. S. Iyengar, J. Tomasi, 
 M. Cossi, N. Rega, J. M. Millam, M. Klene, J. E. Knox, J. B. Cross, 
 V. Bakken, C. Adamo, J. Jaramillo, R. Gomperts, R. E. Stratmann, 
 O. Yazyev, A. J. Austin, R. Cammi, C. Pomelli, J. W. Ochterski, 
 R. L. Martin, K. Morokuma, V. G. Zakrzewski, G. A. Voth, 
 P. Salvador, J. J. Dannenberg, S. Dapprich, A. D. Daniels, 
 O. Farkas, J. B. Foresman, J. V. Ortiz, J. Cioslowski, 
 and D. J. Fox, Gaussian, Inc., Wallingford CT, 2013.
 
 ******************************************
 Gaussian 09:  AS64L-G09RevD.01 24-Apr-2013
                19-Jan-2019 
 ******************************************
 %Chk=BLIND02537
 %Mem=1GB
 %NProcShared=48
 Will use up to   48 processors via shared memory.
 ---------------------------------------------
 #T M05/Gen test Massage SCF=(fermi,maxcyc=60)
 ---------------------------------------------
 -------
 M05 opt
 -------
 Symbolic Z-matrix:
 Charge =  0 Multiplicity = 1
 6                     0.19873  -0.01883  -1.00063 
 6                    -0.20552  -1.27775  -0.47384 
 16                   -0.31998   1.54646  -0.39291 
 16                   -1.28459  -1.47153   0.91636 
 6                    -0.49902   1.17883   1.33246 
 6                    -0.88302  -0.01863   1.84848 
 6                     1.00278  -0.21458  -2.10539 
 7                     0.22754  -2.3538   -1.08412 
 16                    1.1553   -1.91679  -2.39531 
 6                    -0.2404    2.30017   2.17319 
 7                    -0.04298   3.24849   2.81576 
 6                    -1.04247  -0.19608   3.25455 
 7                    -1.2132   -0.37758   4.38982 
 6                     1.6099    0.7596   -2.93457 
 7                     2.10817   1.5455   -3.63113 
 6                    -0.64167  -0.09026   11.07142 
 6                    -0.07815   1.20996   11.20439 
 16                    0.14845  -1.58865   11.53948 
 16                    1.51696   1.53374   11.90107 
 6                     1.09767  -1.03155   12.92971 
 6                     1.64017   0.20691   13.06955 
 6                    -1.87283  -0.00154   10.45361 
 7                    -0.77849   2.22001   10.74919 
 16                   -2.19543   1.65986   10.07879 
 6                     1.29456  -2.04307   13.91417 
 7                     1.4481   -2.90684   14.67674 
 6                     2.4295    0.53925   14.20992 
 7                     3.10277   0.8445    15.10683 
 6                    -2.76528  -1.04833   10.11756 
 7                    -3.50561  -1.89573   9.82614 
 
                    Distance matrix (angstroms):
                    1          2          3          4          5
     1  C    0.000000
     2  C    1.423315   0.000000
     3  S    1.757418   2.827694   0.000000
     4  S    2.825849   1.770477   3.428253   0.000000
     5  C    2.713774   3.063280   1.773167   2.795470   0.000000
     6  C    3.047557   2.727187   2.791121   1.772288   1.359281
     7  C    1.380327   2.291783   2.789903   3.992857   4.001979
     8  N    2.336642   1.310672   3.998700   2.658358   4.341342
     9  S    2.542129   2.439721   4.263822   4.137445   5.120151
    10  C    3.955208   4.450782   2.675676   4.110426   1.425163
    11  N    5.029770   5.597745   3.642685   5.237162   2.586817
    12  C    4.436049   3.971317   4.106384   2.674416   2.424897
    13  N    5.583831   5.047859   5.232040   3.642352   3.504263
    14  C    2.517432   3.674472   3.286888   5.309014   4.778168
    15  N    3.607292   4.826214   4.047461   6.425950   5.618639
    16  C   12.101478  11.614359  11.585042  10.268713   9.822332
    17  C   12.269844  11.940936  11.604699  10.699973   9.880942
    18  S   12.638084  12.022550  12.346262  10.719979  10.595342
    19  S   13.061476  12.806635  12.430467  11.727927  10.765020
    20  C   13.996001  13.469001  13.643608  12.255174  11.913493
    21  C   14.145619  13.748965  13.670197  12.612346  11.969957
    22  C   11.640073  11.127344  11.065923   9.667784   9.299244
    23  N   12.001070  11.769412  11.171855  10.515140   9.478235
    24  S   11.458781  11.133167  10.638926   9.725505   8.922303
    25  C   15.091377  14.486225  14.838597  13.263549  13.110946
    26  N   15.990044  15.327375  15.813044  14.102333  14.090909
    27  C   15.383385  15.028556  14.893510  13.948346  13.221729
    28  N   16.389908  16.068789  15.888672  15.032710  14.241414
    29  C   11.552460  10.898747  11.098754   9.329180   9.342056
    30  N   11.595857  10.833379  11.243928   9.192231   9.520244
                    6          7          8          9         10
     6  C    0.000000
     7  C    4.384939   0.000000
     8  N    3.909794   2.494036   0.000000
     9  S    5.076167   1.733444   1.664607   0.000000
    10  C    2.428007   5.116215   5.699860   6.371958   0.000000
    11  N    3.509330   6.107712   6.831389   7.434461   1.162408
    12  C    1.426163   5.736923   5.009263   6.301738   2.836178
    13  N    2.587713   6.864751   5.995430   7.349618   3.609722
    14  C    5.449573   1.416040   3.876636   2.767765   5.646781
    15  N    6.435818   2.578302   5.022796   3.797715   6.306769
    16  C    9.226376  13.279605  12.395011  13.708322   9.222459
    17  C    9.470498  13.429367  12.798489  14.008918   9.098214
    18  S    9.871390  13.740461  12.647014  13.974967  10.148965
    19  S   10.451050  14.124517  13.615832  14.711342   9.915016
    20  C   11.302336  15.057575  14.102939  15.350673  11.339911
    21  C   11.503464  15.194160  14.452647  15.617521  11.253841
    22  C    8.661889  12.885765  11.960934  13.339133   8.748035
    23  N    9.178516  13.203802  12.726316  13.915120   8.593246
    24  S    8.501639  12.735634  12.107476  13.402354   8.168890
    25  C   12.426629  16.126211  15.039408  16.310562  12.612315
    26  N   13.354407  17.002540  15.817724  17.103240  13.649280
    27  C   12.809730  16.394907  15.720240  16.834171  12.454401
    28  N   13.871389  17.372163  16.752402  17.825327  13.437818
    29  C    8.542882  12.817714  11.667856  13.141423   8.983343
    30  N    8.604916  12.865194  11.540369  13.080076   9.318522
                   11         12         13         14         15
    11  N    0.000000
    12  C    3.613393   0.000000
    13  N    4.122555   1.162293   0.000000
    14  C    6.480188   6.800997   7.931563   0.000000
    15  N    7.006418   7.769948   8.891861   1.162367   0.000000
    16  C    8.925342   7.827856   6.712153  14.211248  15.046666
    17  C    8.632846   8.130612   7.088512  14.246491  14.999502
    18  S    9.976869   8.485139   7.378239  14.735948  15.614434
    19  S    9.376396   9.181797   8.217414  14.856119  15.543451
    20  C   11.041375   9.944193   8.871164  15.973289  16.790578
    21  C   10.827025  10.182983   9.155381  16.013685  16.760766
    22  C    8.499877   7.249404   6.111147  13.854678  14.718065
    23  N    8.033568   7.878889   6.883174  13.967196  14.682688
    24  S    7.740060   7.165487   6.122124  13.588181  14.369966
    25  C   12.367879  11.068000   9.988794  17.083161  17.926994
    26  N   13.445982  12.000736  10.922476  17.989642  18.853036
    27  C   11.969967  11.515877  10.513999  17.165481  17.872286
    28  N   12.912997  12.599303  11.617893  18.103260  18.777424
    29  C    8.898870   7.127083   5.972091  13.884121  14.815691
    30  N    9.359398   7.220922   6.092090  14.001963  14.981808
                   16         17         18         19         20
    16  C    0.000000
    17  C    1.423315   0.000000
    18  S    1.757418   2.827694   0.000000
    19  S    2.825849   1.770477   3.428253   0.000000
    20  C    2.713774   3.063280   1.773167   2.795470   0.000000
    21  C    3.047557   2.727187   2.791121   1.772288   1.359281
    22  C    1.380327   2.291783   2.789903   3.992857   4.001979
    23  N    2.336642   1.310672   3.998700   2.658358   4.341342
    24  S    2.542129   2.439721   4.263822   4.137445   5.120151
    25  C    3.955208   4.450782   2.675676   4.110426   1.425163
    26  N    5.029770   5.597745   3.642685   5.237162   2.586817
    27  C    4.436049   3.971317   4.106384   2.674416   2.424897
    28  N    5.583831   5.047859   5.232040   3.642352   3.504263
    29  C    2.517432   3.674472   3.286888   5.309014   4.778168
    30  N    3.607292   4.826214   4.047461   6.425950   5.618639
                   21         22         23         24         25
    21  C    0.000000
    22  C    4.384939   0.000000
    23  N    3.909794   2.494036   0.000000
    24  S    5.076167   1.733444   1.664607   0.000000
    25  C    2.428007   5.116215   5.699860   6.371958   0.000000
    26  N    3.509330   6.107712   6.831389   7.434461   1.162408
    27  C    1.426163   5.736923   5.009263   6.301738   2.836178
    28  N    2.587713   6.864751   5.995430   7.349618   3.609722
    29  C    5.449573   1.416040   3.876636   2.767765   5.646781
    30  N    6.435818   2.578302   5.022796   3.797715   6.306769
                   26         27         28         29         30
    26  N    0.000000
    27  C    3.613393   0.000000
    28  N    4.122555   1.162293   0.000000
    29  C    6.480188   6.800997   7.931563   0.000000
    30  N    7.006418   7.769948   8.891861   1.162367   0.000000
 Symmetry turned off by external request.
 Framework group  C1[X(C16N8S6)]
 Deg. of freedom    84
 Rotational constants (GHZ):      0.2177535      0.0247651      0.0246063
   714 basis functions,  1518 primitive gaussians,   774 cartesian basis functions
   124 alpha electrons      124 beta electrons
       nuclear repulsion energy      3033.3422902400 Hartrees.
 IMHF & INEx in M05                  599485                  400514
 NAtoms=   30 NActive=   30 NUniq=   30 SFac= 1.00D+00 NAtFMM=   60 NAOKFM=F Big=F
 PrsmSu:  requested number of processors reduced to:  27 ShMem   1 Linda.
 ExpMin= 3.99D-02 ExpMax= 1.11D+05 ExpMxC= 1.07D+03 IAcc=3 IRadAn=         5 AccDes= 0.00D+00
 Harris functional with IExCor= 1009 and IRadAn=       5 diagonalized for initial guess.
 HarFok:  IExCor= 1009 AccDes= 0.00D+00 IRadAn=         5 IDoV= 1 UseB2=F ITyADJ=14
 ICtDFT=  3500011 ScaDFX=  1.000000  1.000000  1.000000  1.000000
 FoFCou: FMM=F IPFlag=           0 FMFlag=      100000 FMFlg1=           0
         NFxFlg=           0 DoJE=T BraDBF=F KetDBF=T FulRan=T
         wScrn=  0.000000 ICntrl=     500 IOpCl=  0 I1Cent=   200000004 NGrid=           0
         NMat0=    1 NMatS0=      1 NMatT0=    0 NMatD0=    1 NMtDS0=    0 NMtDT0=    0
 Symmetry not used in FoFCou.
 SCF Done:  E(RM05) =  -3448.35987961     A.U. after   17 cycles
            NFock= 17  Conv=0.44D-08     -V/T= 2.0058

 **********************************************************************

            Population analysis using the SCF density.

 **********************************************************************

 Alpha  occ. eigenvalues --  -90.54979 -90.54168 -90.52240 -90.51776 -90.51454
 Alpha  occ. eigenvalues --  -90.51000 -15.08101 -15.07295 -15.04862 -15.04638
 Alpha  occ. eigenvalues --  -15.04553 -15.04069 -15.03807 -15.03777 -10.89583
 Alpha  occ. eigenvalues --  -10.89471 -10.89277 -10.88799 -10.88679 -10.88471
 Alpha  occ. eigenvalues --  -10.88296 -10.87486 -10.86964 -10.86156 -10.84468
 Alpha  occ. eigenvalues --  -10.84128 -10.84028 -10.83694 -10.83271 -10.83257
 Alpha  occ. eigenvalues --   -8.57585  -8.56770  -8.55150  -8.54713  -8.54364
 Alpha  occ. eigenvalues --   -8.53939  -6.40307  -6.39957  -6.39647  -6.39493
 Alpha  occ. eigenvalues --   -6.39142  -6.38832  -6.37895  -6.37582  -6.37451
 Alpha  occ. eigenvalues --   -6.37142  -6.37122  -6.37110  -6.36797  -6.36682
 Alpha  occ. eigenvalues --   -6.36677  -6.36368  -6.36337  -6.35908  -1.20825
 Alpha  occ. eigenvalues --   -1.20012  -1.13326  -1.12522  -1.12371  -1.11787
 Alpha  occ. eigenvalues --   -1.11582  -1.10979  -1.08032  -1.07238  -1.04101
 Alpha  occ. eigenvalues --   -1.03298  -0.99160  -0.98360  -0.97740  -0.96945
 Alpha  occ. eigenvalues --   -0.88355  -0.87556  -0.84910  -0.84111  -0.82563
 Alpha  occ. eigenvalues --   -0.81760  -0.74106  -0.73316  -0.71638  -0.70830
 Alpha  occ. eigenvalues --   -0.68193  -0.67392  -0.64977  -0.64179  -0.59900
 Alpha  occ. eigenvalues --   -0.59092  -0.57637  -0.56838  -0.55816  -0.55018
 Alpha  occ. eigenvalues --   -0.53753  -0.52955  -0.52953  -0.52626  -0.52352
 Alpha  occ. eigenvalues --   -0.52159  -0.51832  -0.51545  -0.51308  -0.50712
 Alpha  occ. eigenvalues --   -0.50495  -0.49921  -0.49703  -0.48910  -0.48712
 Alpha  occ. eigenvalues --   -0.47908  -0.47147  -0.46584  -0.46424  -0.46358
 Alpha  occ. eigenvalues --   -0.45771  -0.45698  -0.45626  -0.44898  -0.44046
 Alpha  occ. eigenvalues --   -0.43474  -0.43254  -0.42680  -0.39887  -0.39074
 Alpha  occ. eigenvalues --   -0.37961  -0.37163  -0.33473  -0.32682
 Alpha virt. eigenvalues --   -0.09794  -0.08999  -0.08598  -0.07785  -0.02504
 Alpha virt. eigenvalues --   -0.01731  -0.01559  -0.00876  -0.00756  -0.00603
 Alpha virt. eigenvalues --   -0.00190  -0.00130   0.00117   0.00587   0.00921
 Alpha virt. eigenvalues --    0.01605   0.01838   0.01913   0.02040   0.02495
 Alpha virt. eigenvalues --    0.02630   0.02782   0.02901   0.03097   0.03355
 Alpha virt. eigenvalues --    0.03621   0.03900   0.04053   0.04234   0.04539
 Alpha virt. eigenvalues --    0.04794   0.04992   0.05412   0.05740   0.06024
 Alpha virt. eigenvalues --    0.06098   0.06325   0.06657   0.06754   0.07167
 Alpha virt. eigenvalues --    0.07409   0.07529   0.07837   0.08005   0.08096
 Alpha virt. eigenvalues --    0.08266   0.08409   0.08649   0.08848   0.08976
 Alpha virt. eigenvalues --    0.09242   0.09674   0.09974   0.10179   0.10549
 Alpha virt. eigenvalues --    0.10727   0.10828   0.10922   0.11046   0.11221
 Alpha virt. eigenvalues --    0.11353   0.11483   0.11962   0.12085   0.12342
 Alpha virt. eigenvalues --    0.12603   0.12729   0.12928   0.13194   0.13544
 Alpha virt. eigenvalues --    0.13757   0.13895   0.14132   0.14456   0.14637
 Alpha virt. eigenvalues --    0.14835   0.15121   0.15486   0.15632   0.15877
 Alpha virt. eigenvalues --    0.15952   0.16129   0.16503   0.16664   0.16752
 Alpha virt. eigenvalues --    0.16881   0.17038   0.17184   0.17359   0.17589
 Alpha virt. eigenvalues --    0.17736   0.17897   0.18207   0.18461   0.18665
 Alpha virt. eigenvalues --    0.19080   0.19370   0.19515   0.19679   0.19950
 Alpha virt. eigenvalues --    0.20027   0.20050   0.20313   0.20839   0.20870
 Alpha virt. eigenvalues --    0.21118   0.21290   0.21440   0.21662   0.21866
 Alpha virt. eigenvalues --    0.22162   0.22330   0.22520   0.22671   0.22875
 Alpha virt. eigenvalues --    0.23157   0.23337   0.23510   0.23672   0.23934
 Alpha virt. eigenvalues --    0.24170   0.24270   0.24460   0.24570   0.24806
 Alpha virt. eigenvalues --    0.24956   0.25334   0.25436   0.25576   0.25697
 Alpha virt. eigenvalues --    0.25946   0.26161   0.26261   0.26479   0.26790
 Alpha virt. eigenvalues --    0.26813   0.27052   0.27354   0.27413   0.27626
 Alpha virt. eigenvalues --    0.27743   0.28813   0.28867   0.29017   0.29302
 Alpha virt. eigenvalues --    0.29497   0.30197   0.30569   0.30811   0.30966
 Alpha virt. eigenvalues --    0.31180   0.31709   0.32525   0.32970   0.33505
 Alpha virt. eigenvalues --    0.33989   0.34394   0.34448   0.34701   0.35124
 Alpha virt. eigenvalues --    0.35232   0.35576   0.35927   0.36247   0.36283
 Alpha virt. eigenvalues --    0.36877   0.37037   0.37460   0.37876   0.38268
 Alpha virt. eigenvalues --    0.38750   0.39299   0.39820   0.40364   0.40665
 Alpha virt. eigenvalues --    0.41048   0.41305   0.41685   0.41856   0.42215
 Alpha virt. eigenvalues --    0.42899   0.42945   0.43248   0.43969   0.44028
 Alpha virt. eigenvalues --    0.44889   0.45450   0.45721   0.46371   0.46697
 Alpha virt. eigenvalues --    0.47120   0.47819   0.48671   0.48988   0.49397
 Alpha virt. eigenvalues --    0.50115   0.50349   0.50478   0.50697   0.51186
 Alpha virt. eigenvalues --    0.51496   0.51774   0.52312   0.52559   0.53315
 Alpha virt. eigenvalues --    0.54057   0.54186   0.54216   0.54534   0.54816
 Alpha virt. eigenvalues --    0.54970   0.55193   0.55396   0.55552   0.55728
 Alpha virt. eigenvalues --    0.56075   0.56280   0.56365   0.56575   0.57451
 Alpha virt. eigenvalues --    0.57787   0.57974   0.58430   0.58476   0.58896
 Alpha virt. eigenvalues --    0.58994   0.59256   0.59905   0.60226   0.60580
 Alpha virt. eigenvalues --    0.60821   0.60983   0.61475   0.61666   0.61891
 Alpha virt. eigenvalues --    0.62219   0.62248   0.62358   0.63037   0.63284
 Alpha virt. eigenvalues --    0.64021   0.64283   0.64408   0.64764   0.65428
 Alpha virt. eigenvalues --    0.65529   0.66206   0.66539   0.66938   0.67355
 Alpha virt. eigenvalues --    0.67453   0.67935   0.68372   0.68960   0.69103
 Alpha virt. eigenvalues --    0.69456   0.70122   0.70190   0.70666   0.70846
 Alpha virt. eigenvalues --    0.71712   0.72364   0.73021   0.73164   0.73471
 Alpha virt. eigenvalues --    0.73672   0.74317   0.74731   0.75190   0.75306
 Alpha virt. eigenvalues --    0.75846   0.76078   0.76421   0.76673   0.76985
 Alpha virt. eigenvalues --    0.77279   0.77590   0.77869   0.78070   0.78332
 Alpha virt. eigenvalues --    0.78481   0.78879   0.79158   0.79515   0.79713
 Alpha virt. eigenvalues --    0.80302   0.80431   0.80553   0.80864   0.81559
 Alpha virt. eigenvalues --    0.81704   0.81916   0.82296   0.82973   0.83295
 Alpha virt. eigenvalues --    0.83739   0.84138   0.84547   0.84735   0.85326
 Alpha virt. eigenvalues --    0.85424   0.85938   0.86271   0.86597   0.86849
 Alpha virt. eigenvalues --    0.86954   0.87685   0.88072   0.88180   0.88492
 Alpha virt. eigenvalues --    0.88867   0.88989   0.89154   0.89413   0.89626
 Alpha virt. eigenvalues --    0.90041   0.90256   0.90408   0.90569   0.91291
 Alpha virt. eigenvalues --    0.91560   0.91736   0.91990   0.92444   0.92782
 Alpha virt. eigenvalues --    0.93391   0.93672   0.94077   0.94538   0.94818
 Alpha virt. eigenvalues --    0.95192   0.95588   0.95976   0.96488   0.97062
 Alpha virt. eigenvalues --    0.97980   0.98560   0.98969   0.99382   0.99748
 Alpha virt. eigenvalues --    0.99937   1.00488   1.01347   1.01670   1.02682
 Alpha virt. eigenvalues --    1.03326   1.03425   1.04011   1.04508   1.05217
 Alpha virt. eigenvalues --    1.05550   1.06426   1.06630   1.07438   1.07730
 Alpha virt. eigenvalues --    1.08306   1.08713   1.09117   1.09377   1.09890
 Alpha virt. eigenvalues --    1.10163   1.10640   1.11288   1.11960   1.13076
 Alpha virt. eigenvalues --    1.13392   1.13640   1.14166   1.14212   1.14933
 Alpha virt. eigenvalues --    1.15046   1.15718   1.16769   1.17574   1.18050
 Alpha virt. eigenvalues --    1.19053   1.19892   1.20300   1.20690   1.21224
 Alpha virt. eigenvalues --    1.21324   1.22122   1.22326   1.23270   1.23685
 Alpha virt. eigenvalues --    1.24026   1.24367   1.24704   1.26329   1.26937
 Alpha virt. eigenvalues --    1.27239   1.27825   1.29407   1.29959   1.30365
 Alpha virt. eigenvalues --    1.30686   1.31887   1.32751   1.33757   1.34428
 Alpha virt. eigenvalues --    1.37015   1.37780   1.39766   1.39903   1.40549
 Alpha virt. eigenvalues --    1.40787   1.41244   1.42017   1.42374   1.43210
 Alpha virt. eigenvalues --    1.43456   1.44080   1.44667   1.45539   1.46312
 Alpha virt. eigenvalues --    1.46876   1.47017   1.47883   1.49048   1.49569
 Alpha virt. eigenvalues --    1.49776   1.50174   1.50289   1.51051   1.51364
 Alpha virt. eigenvalues --    1.51552   1.52004   1.52043   1.52318   1.52988
 Alpha virt. eigenvalues --    1.53342   1.53831   1.54306   1.55079   1.55106
 Alpha virt. eigenvalues --    1.55890   1.56129   1.56466   1.56645   1.56836
 Alpha virt. eigenvalues --    1.57150   1.57357   1.58290   1.59129   1.59575
 Alpha virt. eigenvalues --    1.60061   1.60145   1.60537   1.60971   1.61192
 Alpha virt. eigenvalues --    1.61886   1.62904   1.63051   1.63829   1.64754
 Alpha virt. eigenvalues --    1.65461   1.65791   1.66572   1.67358   1.68116
 Alpha virt. eigenvalues --    1.68669   1.68997   1.69084   1.69611   1.70311
 Alpha virt. eigenvalues --    1.70974   1.71432   1.71870   1.73866   1.74579
 Alpha virt. eigenvalues --    1.76824   1.77255   1.77759   1.78013   1.78863
 Alpha virt. eigenvalues --    1.79137   1.79541   1.79954   1.80893   1.81587
 Alpha virt. eigenvalues --    1.82708   1.83466   1.85635   1.86399   1.88276
 Alpha virt. eigenvalues --    1.88739   1.89541   1.90169   1.90421   1.91003
 Alpha virt. eigenvalues --    1.91188   1.91963   1.94398   1.94784   1.94988
 Alpha virt. eigenvalues --    1.95953   1.97425   1.97988   2.00318   2.00966
 Alpha virt. eigenvalues --    2.01306   2.02091   2.05153   2.06095   2.07111
 Alpha virt. eigenvalues --    2.07571   2.08087   2.08437   2.08909   2.09354
 Alpha virt. eigenvalues --    2.10655   2.11488   2.13629   2.14374   2.18544
 Alpha virt. eigenvalues --    2.19329   2.20089   2.20919   2.24779   2.25207
 Alpha virt. eigenvalues --    2.27414   2.28657   2.30321   2.31190   2.36909
 Alpha virt. eigenvalues --    2.37147   2.37566   2.37747   2.37995   2.38032
 Alpha virt. eigenvalues --    2.38483   2.38827   2.39100   2.39780   2.39883
 Alpha virt. eigenvalues --    2.40115   2.40430   2.40870   2.41930   2.42362
 Alpha virt. eigenvalues --    2.42895   2.43272   2.43612   2.44394   2.44845
 Alpha virt. eigenvalues --    2.45625   2.50946   2.52455   2.54842   2.55663
 Alpha virt. eigenvalues --    2.61395   2.61927   2.64168   2.64611   2.68124
 Alpha virt. eigenvalues --    2.68750   2.71630   2.72494   2.73092   2.74110
 Alpha virt. eigenvalues --    2.76083   2.76857   2.78472   2.79260   2.81541
 Alpha virt. eigenvalues --    2.82312   2.94481   2.95291   2.99623   3.00260
 Alpha virt. eigenvalues --    3.01626   3.02541   3.09658   3.10469   3.11500
 Alpha virt. eigenvalues --    3.13120   3.15722   3.16683   3.17557   3.18513
 Alpha virt. eigenvalues --    3.24671   3.27172   3.27634   3.29232   3.35305
 Alpha virt. eigenvalues --    3.36320   3.59445   3.60919   3.75119   3.76225
          Condensed to atoms (all electrons):
 Mulliken charges:
               1
     1  C    0.595042
     2  C   -0.086069
     3  S    0.370210
     4  S    0.298137
     5  C    1.011718
     6  C    1.202163
     7  C    0.773624
     8  N   -1.068970
     9  S    0.562129
    10  C   -1.101940
    11  N   -0.156787
    12  C   -1.295137
    13  N   -0.088942
    14  C   -0.845512
    15  N   -0.169787
    16  C    0.585276
    17  C   -0.127691
    18  S    0.378220
    19  S    0.308165
    20  C    1.013650
    21  C    1.130396
    22  C    0.850087
    23  N   -1.068154
    24  S    0.592359
    25  C   -1.161941
    26  N   -0.147979
    27  C   -1.113577
    28  N   -0.162108
    29  C   -0.919062
    30  N   -0.157518
 Sum of Mulliken charges =  -0.00000
 Mulliken charges with hydrogens summed into heavy atoms:
               1
     1  C    0.595042
     2  C   -0.086069
     3  S    0.370210
     4  S    0.298137
     5  C    1.011718
     6  C    1.202163
     7  C    0.773624
     8  N   -1.068970
     9  S    0.562129
    10  C   -1.101940
    11  N   -0.156787
    12  C   -1.295137
    13  N   -0.088942
    14  C   -0.845512
    15  N   -0.169787
    16  C    0.585276
    17  C   -0.127691
    18  S    0.378220
    19  S    0.308165
    20  C    1.013650
    21  C    1.130396
    22  C    0.850087
    23  N   -1.068154
    24  S    0.592359
    25  C   -1.161941
    26  N   -0.147979
    27  C   -1.113577
    28  N   -0.162108
    29  C   -0.919062
    30  N   -0.157518
 Electronic spatial extent (au):  <R**2>=          70383.1347
 Charge=             -0.0000 electrons
 Dipole moment (field-independent basis, Debye):
    X=             -1.8428    Y=             -0.4151    Z=             -7.5637  Tot=              7.7960

 Test job not archived.
 1\1\GINC-CHIMERA-NODE37\SP\RM05\Gen\C16N8S6\CONNORNM\19-Jan-2019\0\\#T
  M05/Gen test Massage SCF=(fermi,maxcyc=60)\\M05 opt\\0,1\C,0,0.198732
 08,-0.0188254,-1.00062984\C,0,-0.20551768,-1.27775322,-0.47383812\S,0,
 -0.31997839,1.54646404,-0.39290863\S,0,-1.28458675,-1.47152614,0.91635
 983\C,0,-0.49902192,1.17883157,1.33246433\C,0,-0.88301865,-0.01863227,
 1.84847879\C,0,1.0027809,-0.21458273,-2.10538672\N,0,0.22754458,-2.353
 79784,-1.08412091\S,0,1.15529775,-1.91679013,-2.39530939\C,0,-0.240401
 51,2.30016652,2.17318608\N,0,-0.04297995,3.24849285,2.81575509\C,0,-1.
 04246862,-0.19608127,3.25454759\N,0,-1.21319639,-0.37757651,4.38981745
 \C,0,1.60990058,0.75959896,-2.93456957\N,0,2.10816785,1.54549724,-3.63
 112504\C,0,-0.64166964,-0.09026451,11.07141987\C,0,-0.07815036,1.20996
 306,11.20438951\S,0,0.14844797,-1.58864786,11.53947773\S,0,1.51696237,
 1.53374456,11.901074\C,0,1.0976712,-1.03155378,12.92970919\C,0,1.64016
 842,0.20690754,13.06954611\C,0,-1.87282536,-0.00154101,10.45361168\N,0
 ,-0.77848664,2.22000581,10.7491942\S,0,-2.19542798,1.65986396,10.07879
 487\C,0,1.29456468,-2.04306776,13.9141695\N,0,1.4481017,-2.90684108,14
 .67674084\C,0,2.42949847,0.53925008,14.20991817\N,0,3.10277169,0.84449
 833,15.10683111\C,0,-2.76528214,-1.04832501,10.11755724\N,0,-3.5056080
 7,-1.89572749,9.82614262\\Version=AS64L-G09RevD.01\HF=-3448.3598796\RM
 SD=4.412e-09\Dipole=-0.7249975,-0.1633025,-2.975802\Quadrupole=33.4009
 436,24.5609645,-57.9619081,-10.259466,-15.074671,25.5420349\PG=C01 [X(
 C16N8S6)]\\@


 UNDER MOST GREENE GRASSE LY MOST GREATE SNAKES.
 -- PROVERBS AND REASONS OF THE YEAR 1585
           AS REPRINTED IN PAISLEY MAGAZINE 1828.
 Job cpu time:       0 days  7 hours 37 minutes 33.9 seconds.
 File lengths (MBytes):  RWF=    225 Int=      0 D2E=      0 Chk=     19 Scr=      1
 Normal termination of Gaussian 09 at Sat Jan 19 13:56:18 2019.
