 Entering Gaussian System, Link 0=/data/szalewicgrp/connornm/opt/Gaussian/g09-M05-par/g09/g09
 AtFile(1): blind-aug.gbs
 Initial command:
 /data/szalewicgrp/connornm/opt/Gaussian/g09-M05-par/g09/l1.exe "/scratch/local/Gau-33788.inp" -scrdir="/scratch/local/"
 Entering Link 1 = /data/szalewicgrp/connornm/opt/Gaussian/g09-M05-par/g09/l1.exe PID=     33789.
  
 Copyright (c) 1988,1990,1992,1993,1995,1998,2003,2009,2013,
            Gaussian, Inc.  All Rights Reserved.
  
 This is part of the Gaussian(R) 09 program.  It is based on
 the Gaussian(R) 03 system (copyright 2003, Gaussian, Inc.),
 the Gaussian(R) 98 system (copyright 1998, Gaussian, Inc.),
 the Gaussian(R) 94 system (copyright 1995, Gaussian, Inc.),
 the Gaussian 92(TM) system (copyright 1992, Gaussian, Inc.),
 the Gaussian 90(TM) system (copyright 1990, Gaussian, Inc.),
 the Gaussian 88(TM) system (copyright 1988, Gaussian, Inc.),
 the Gaussian 86(TM) system (copyright 1986, Carnegie Mellon
 University), and the Gaussian 82(TM) system (copyright 1983,
 Carnegie Mellon University). Gaussian is a federally registered
 trademark of Gaussian, Inc.
  
 This software contains proprietary and confidential information,
 including trade secrets, belonging to Gaussian, Inc.
  
 This software is provided under written license and may be
 used, copied, transmitted, or stored only in accord with that
 written license.
  
 The following legend is applicable only to US Government
 contracts under FAR:
  
                    RESTRICTED RIGHTS LEGEND
  
 Use, reproduction and disclosure by the US Government is
 subject to restrictions as set forth in subparagraphs (a)
 and (c) of the Commercial Computer Software - Restricted
 Rights clause in FAR 52.227-19.
  
 Gaussian, Inc.
 340 Quinnipiac St., Bldg. 40, Wallingford CT 06492
  
  
 ---------------------------------------------------------------
 Warning -- This program may not be used in any manner that
 competes with the business of Gaussian, Inc. or will provide
 assistance to any competitor of Gaussian, Inc.  The licensee
 of this program is prohibited from giving any competitor of
 Gaussian, Inc. access to this program.  By using this program,
 the user acknowledges that Gaussian, Inc. is engaged in the
 business of creating and licensing software in the field of
 computational chemistry and represents and warrants to the
 licensee that it is not a competitor of Gaussian, Inc. and that
 it will not use this program in any manner prohibited above.
 ---------------------------------------------------------------
  

 Cite this work as:
 Gaussian 09, Revision D.01,
 M. J. Frisch, G. W. Trucks, H. B. Schlegel, G. E. Scuseria, 
 M. A. Robb, J. R. Cheeseman, G. Scalmani, V. Barone, B. Mennucci, 
 G. A. Petersson, H. Nakatsuji, M. Caricato, X. Li, H. P. Hratchian, 
 A. F. Izmaylov, J. Bloino, G. Zheng, J. L. Sonnenberg, M. Hada, 
 M. Ehara, K. Toyota, R. Fukuda, J. Hasegawa, M. Ishida, T. Nakajima, 
 Y. Honda, O. Kitao, H. Nakai, T. Vreven, J. A. Montgomery, Jr., 
 J. E. Peralta, F. Ogliaro, M. Bearpark, J. J. Heyd, E. Brothers, 
 K. N. Kudin, V. N. Staroverov, T. Keith, R. Kobayashi, J. Normand, 
 K. Raghavachari, A. Rendell, J. C. Burant, S. S. Iyengar, J. Tomasi, 
 M. Cossi, N. Rega, J. M. Millam, M. Klene, J. E. Knox, J. B. Cross, 
 V. Bakken, C. Adamo, J. Jaramillo, R. Gomperts, R. E. Stratmann, 
 O. Yazyev, A. J. Austin, R. Cammi, C. Pomelli, J. W. Ochterski, 
 R. L. Martin, K. Morokuma, V. G. Zakrzewski, G. A. Voth, 
 P. Salvador, J. J. Dannenberg, S. Dapprich, A. D. Daniels, 
 O. Farkas, J. B. Foresman, J. V. Ortiz, J. Cioslowski, 
 and D. J. Fox, Gaussian, Inc., Wallingford CT, 2013.
 
 ******************************************
 Gaussian 09:  AS64L-G09RevD.01 24-Apr-2013
                19-Jan-2019 
 ******************************************
 %Chk=BLIND01454_mA
 %Mem=1GB
 %NProcShared=48
 Will use up to   48 processors via shared memory.
 ---------------------------------------------
 #T M05/Gen test Massage SCF=(fermi,maxcyc=60)
 ---------------------------------------------
 -------
 M05 opt
 -------
 Symbolic Z-matrix:
 Charge =  0 Multiplicity = 1
 6                    -0.33523   0.83925  -0.47369 
 6                    -0.14705  -0.27186  -1.34309 
 16                   -0.78678   0.73312   1.2214 
 16                   -0.30846  -1.96233  -0.84224 
 6                     0.01117  -0.78465   1.67282 
 6                     0.19814  -1.85226   0.85253 
 6                    -0.17934   2.01399  -1.1815 
 7                     0.13016  -0.01519  -2.59813 
 16                    0.15436   1.63171  -2.83901 
 6                     0.42047  -0.81716   3.03756 
 7                     0.71421  -0.80572   4.16218 
 6                     0.81178  -3.04777   1.33017 
 7                     1.27997  -4.05112   1.68373 
 6                    -0.29141   3.34504  -0.7115 
 7                    -0.38866   4.44386  -0.34509 
 
                    Distance matrix (angstroms):
                    1          2          3          4          5
     1  C    0.000000
     2  C    1.423315   0.000000
     3  S    1.757418   2.827694   0.000000
     4  S    2.825849   1.770477   3.428253   0.000000
     5  C    2.713774   3.063280   1.773167   2.795470   0.000000
     6  C    3.047557   2.727187   2.791121   1.772288   1.359281
     7  C    1.380327   2.291783   2.789903   3.992857   4.001979
     8  N    2.336642   1.310672   3.998700   2.658358   4.341342
     9  S    2.542129   2.439721   4.263822   4.137445   5.120151
    10  C    3.955208   4.450782   2.675676   4.110426   1.425163
    11  N    5.029770   5.597745   3.642685   5.237162   2.586817
    12  C    4.436049   3.971317   4.106384   2.674416   2.424897
    13  N    5.583831   5.047859   5.232040   3.642352   3.504263
    14  C    2.517432   3.674472   3.286888   5.309014   4.778168
    15  N    3.607292   4.826214   4.047461   6.425950   5.618639
                    6          7          8          9         10
     6  C    0.000000
     7  C    4.384939   0.000000
     8  N    3.909794   2.494036   0.000000
     9  S    5.076167   1.733444   1.664607   0.000000
    10  C    2.428007   5.116215   5.699860   6.371958   0.000000
    11  N    3.509330   6.107712   6.831389   7.434461   1.162408
    12  C    1.426163   5.736923   5.009263   6.301738   2.836178
    13  N    2.587713   6.864751   5.995430   7.349618   3.609722
    14  C    5.449573   1.416040   3.876636   2.767765   5.646781
    15  N    6.435818   2.578302   5.022796   3.797715   6.306769
                   11         12         13         14         15
    11  N    0.000000
    12  C    3.613393   0.000000
    13  N    4.122555   1.162293   0.000000
    14  C    6.480188   6.800997   7.931563   0.000000
    15  N    7.006418   7.769948   8.891861   1.162367   0.000000
 Symmetry turned off by external request.
 Framework group  C1[X(C8N4S3)]
 Deg. of freedom    39
 Rotational constants (GHZ):      0.7722167      0.3388923      0.2463240
   357 basis functions,   759 primitive gaussians,   387 cartesian basis functions
    62 alpha electrons       62 beta electrons
       nuclear repulsion energy      1166.1400392825 Hartrees.
 IMHF & INEx in M05                  599485                  400514
 NAtoms=   15 NActive=   15 NUniq=   15 SFac= 1.00D+00 NAtFMM=   60 NAOKFM=F Big=F
 PrsmSu:  requested number of processors reduced to:  34 ShMem   1 Linda.
 ExpMin= 3.99D-02 ExpMax= 1.11D+05 ExpMxC= 1.07D+03 IAcc=3 IRadAn=         5 AccDes= 0.00D+00
 Harris functional with IExCor= 1009 and IRadAn=       5 diagonalized for initial guess.
 HarFok:  IExCor= 1009 AccDes= 0.00D+00 IRadAn=         5 IDoV= 1 UseB2=F ITyADJ=14
 ICtDFT=  3500011 ScaDFX=  1.000000  1.000000  1.000000  1.000000
 FoFCou: FMM=F IPFlag=           0 FMFlag=      100000 FMFlg1=           0
         NFxFlg=           0 DoJE=T BraDBF=F KetDBF=T FulRan=T
         wScrn=  0.000000 ICntrl=     500 IOpCl=  0 I1Cent=   200000004 NGrid=           0
         NMat0=    1 NMatS0=      1 NMatT0=    0 NMatD0=    1 NMtDS0=    0 NMtDT0=    0
 Symmetry not used in FoFCou.
 SCF Done:  E(RM05) =  -1724.76149557     A.U. after   17 cycles
            NFock= 17  Conv=0.51D-08     -V/T= 2.0061

 **********************************************************************

            Population analysis using the SCF density.

 **********************************************************************

 Alpha  occ. eigenvalues --  -90.56431 -90.53635 -90.53182 -15.08622 -15.05416
 Alpha  occ. eigenvalues --  -15.04970 -15.04934 -10.89945 -10.89827 -10.89736
 Alpha  occ. eigenvalues --  -10.88752 -10.87413 -10.84946 -10.84332 -10.84311
 Alpha  occ. eigenvalues --   -8.57526  -8.55035  -8.54609  -6.40063  -6.39713
 Alpha  occ. eigenvalues --   -6.39401  -6.37597  -6.37282  -6.37163  -6.36853
 Alpha  occ. eigenvalues --   -6.36821  -6.36392  -1.20533  -1.12896  -1.12138
 Alpha  occ. eigenvalues --   -1.11338  -1.07644  -1.03801  -0.98824  -0.97396
 Alpha  occ. eigenvalues --   -0.88003  -0.84555  -0.82236  -0.73687  -0.71296
 Alpha  occ. eigenvalues --   -0.67838  -0.64612  -0.59530  -0.57258  -0.55386
 Alpha  occ. eigenvalues --   -0.53385  -0.52647  -0.52243  -0.51890  -0.50884
 Alpha  occ. eigenvalues --   -0.50387  -0.49356  -0.48216  -0.46805  -0.46075
 Alpha  occ. eigenvalues --   -0.45933  -0.45296  -0.43720  -0.43113  -0.39489
 Alpha  occ. eigenvalues --   -0.37627  -0.33120
 Alpha virt. eigenvalues --   -0.09329  -0.08268  -0.02098  -0.01261  -0.00501
 Alpha virt. eigenvalues --   -0.00360   0.00153   0.01255   0.02022   0.02232
 Alpha virt. eigenvalues --    0.02395   0.02958   0.03191   0.04004   0.04277
 Alpha virt. eigenvalues --    0.04488   0.05428   0.06009   0.06299   0.07068
 Alpha virt. eigenvalues --    0.07272   0.07527   0.07707   0.08290   0.08493
 Alpha virt. eigenvalues --    0.09375   0.10093   0.10394   0.10527   0.10814
 Alpha virt. eigenvalues --    0.11287   0.11394   0.11980   0.12528   0.13229
 Alpha virt. eigenvalues --    0.13492   0.13936   0.14456   0.15075   0.15190
 Alpha virt. eigenvalues --    0.15902   0.16276   0.16680   0.16813   0.17189
 Alpha virt. eigenvalues --    0.17362   0.17841   0.18615   0.19050   0.19562
 Alpha virt. eigenvalues --    0.19867   0.20242   0.20687   0.20943   0.21266
 Alpha virt. eigenvalues --    0.21881   0.22210   0.22583   0.22819   0.23614
 Alpha virt. eigenvalues --    0.23752   0.24113   0.24370   0.24703   0.25261
 Alpha virt. eigenvalues --    0.25696   0.25856   0.26229   0.26623   0.26746
 Alpha virt. eigenvalues --    0.27065   0.28335   0.29198   0.29662   0.30368
 Alpha virt. eigenvalues --    0.30711   0.32420   0.33459   0.34156   0.34715
 Alpha virt. eigenvalues --    0.34949   0.35471   0.36119   0.36937   0.37594
 Alpha virt. eigenvalues --    0.38155   0.39578   0.40729   0.41173   0.42050
 Alpha virt. eigenvalues --    0.42122   0.43485   0.44135   0.45738   0.45980
 Alpha virt. eigenvalues --    0.46964   0.48554   0.49574   0.50233   0.50596
 Alpha virt. eigenvalues --    0.51524   0.51856   0.53526   0.54168   0.54423
 Alpha virt. eigenvalues --    0.54699   0.55464   0.55729   0.55840   0.56449
 Alpha virt. eigenvalues --    0.57769   0.58138   0.58554   0.59219   0.60311
 Alpha virt. eigenvalues --    0.60552   0.61098   0.61585   0.62105   0.62709
 Alpha virt. eigenvalues --    0.63712   0.64713   0.64955   0.66009   0.66560
 Alpha virt. eigenvalues --    0.67685   0.68192   0.68808   0.70102   0.70416
 Alpha virt. eigenvalues --    0.71047   0.72862   0.73475   0.73857   0.75370
 Alpha virt. eigenvalues --    0.75568   0.76454   0.77063   0.77555   0.77843
 Alpha virt. eigenvalues --    0.78245   0.79254   0.79763   0.79881   0.81111
 Alpha virt. eigenvalues --    0.81534   0.82544   0.83279   0.83954   0.84871
 Alpha virt. eigenvalues --    0.85698   0.85939   0.87126   0.87251   0.88403
 Alpha virt. eigenvalues --    0.88459   0.89345   0.89668   0.89831   0.90732
 Alpha virt. eigenvalues --    0.91171   0.91724   0.92831   0.93725   0.94368
 Alpha virt. eigenvalues --    0.95431   0.95565   0.97328   0.98744   0.99310
 Alpha virt. eigenvalues --    0.99846   1.01205   1.02846   1.03575   1.04751
 Alpha virt. eigenvalues --    1.05758   1.06742   1.08036   1.08540   1.09635
 Alpha virt. eigenvalues --    1.10234   1.11400   1.13195   1.13609   1.14403
 Alpha virt. eigenvalues --    1.15320   1.17098   1.18340   1.20286   1.20630
 Alpha virt. eigenvalues --    1.21607   1.22697   1.23934   1.24219   1.26558
 Alpha virt. eigenvalues --    1.27344   1.29758   1.30251   1.32276   1.34124
 Alpha virt. eigenvalues --    1.37312   1.40080   1.40255   1.41566   1.42729
 Alpha virt. eigenvalues --    1.43618   1.45025   1.46462   1.47272   1.49370
 Alpha virt. eigenvalues --    1.49824   1.50475   1.51642   1.51870   1.52333
 Alpha virt. eigenvalues --    1.53716   1.54194   1.55433   1.56136   1.56450
 Alpha virt. eigenvalues --    1.56791   1.58490   1.59726   1.60393   1.60516
 Alpha virt. eigenvalues --    1.62131   1.63281   1.64929   1.66030   1.67548
 Alpha virt. eigenvalues --    1.68611   1.69177   1.70472   1.71326   1.74155
 Alpha virt. eigenvalues --    1.76826   1.77079   1.79015   1.79376   1.81038
 Alpha virt. eigenvalues --    1.82955   1.85917   1.88151   1.89703   1.90608
 Alpha virt. eigenvalues --    1.91370   1.94485   1.95007   1.97395   2.00539
 Alpha virt. eigenvalues --    2.00824   2.05448   2.07037   2.08347   2.08473
 Alpha virt. eigenvalues --    2.10895   2.13935   2.18604   2.20230   2.24593
 Alpha virt. eigenvalues --    2.27645   2.30684   2.37027   2.37402   2.38001
 Alpha virt. eigenvalues --    2.38279   2.39369   2.39930   2.40470   2.42149
 Alpha virt. eigenvalues --    2.42559   2.43754   2.45057   2.51022   2.54994
 Alpha virt. eigenvalues --    2.61158   2.64125   2.68329   2.71896   2.73264
 Alpha virt. eigenvalues --    2.76309   2.78779   2.81840   2.94680   2.99730
 Alpha virt. eigenvalues --    3.01877   3.09942   3.11450   3.15940   3.17850
 Alpha virt. eigenvalues --    3.24292   3.27128   3.35291   3.59308   3.74892
          Condensed to atoms (all electrons):
 Mulliken charges:
               1
     1  C    0.618807
     2  C   -0.108477
     3  S    0.374317
     4  S    0.296373
     5  C    1.040336
     6  C    1.132302
     7  C    0.787073
     8  N   -1.083089
     9  S    0.557181
    10  C   -1.130602
    11  N   -0.167864
    12  C   -1.100152
    13  N   -0.180194
    14  C   -0.852994
    15  N   -0.183016
 Sum of Mulliken charges =  -0.00000
 Mulliken charges with hydrogens summed into heavy atoms:
               1
     1  C    0.618807
     2  C   -0.108477
     3  S    0.374317
     4  S    0.296373
     5  C    1.040336
     6  C    1.132302
     7  C    0.787073
     8  N   -1.083089
     9  S    0.557181
    10  C   -1.130602
    11  N   -0.167864
    12  C   -1.100152
    13  N   -0.180194
    14  C   -0.852994
    15  N   -0.183016
 Electronic spatial extent (au):  <R**2>=           4013.7187
 Charge=             -0.0000 electrons
 Dipole moment (field-independent basis, Debye):
    X=             -1.7206    Y=              0.9138    Z=             -4.2606  Tot=              4.6849

 Test job not archived.
 1\1\GINC-CHIMERA-NODE11\SP\RM05\Gen\C8N4S3\CONNORNM\19-Jan-2019\0\\#T 
 M05/Gen test Massage SCF=(fermi,maxcyc=60)\\M05 opt\\0,1\C,0,-0.335227
 89,0.8392527,-0.47369406\C,0,-0.14705079,-0.27186066,-1.34308646\S,0,-
 0.78677531,0.73312393,1.22140424\S,0,-0.30845571,-1.96233214,-0.842244
 2\C,0,0.01116722,-0.78464835,1.67282103\C,0,0.19813988,-1.85226385,0.8
 5252692\C,0,-0.1793388,2.01399059,-1.18150245\N,0,0.13015735,-0.015194
 18,-2.59813147\S,0,0.15436189,1.63171443,-2.83901123\C,0,0.42047337,-0
 .81716189,3.0375558\N,0,0.71420523,-0.80571905,4.16218182\C,0,0.811778
 64,-3.04777384,1.33017246\N,0,1.27997427,-4.05112488,1.68373388\C,0,-0
 .2914053,3.3450446,-0.71149739\N,0,-0.38866391,4.4438556,-0.34509451\\
 Version=AS64L-G09RevD.01\HF=-1724.7614956\RMSD=5.142e-09\Dipole=-0.676
 9465,0.3595226,-1.6762527\Quadrupole=9.4478617,-9.342464,-0.1053977,5.
 5668796,-3.939386,2.0017219\PG=C01 [X(C8N4S3)]\\@


 FROM WHENCE IT HAPPENS, THAT THEY WHICH TRUST TO BOOKS, DO AS THEY THAT CAST UP MANY LITTLE SUMMS INTO GREATER,
 WITHOUT CONSIDERING WETHER THOSE LITTLE SUMMES WERE RIGHTLY CAST UP OR NOT...
 AND AT LAST FINDING THE ERROUR VISIBLE, AND NOT MISTRUSTING THEIR FIRST GROUNDS,
 KNOW NOT WHICH WAY TO CLEERE THEMSELVES...
 BUT SPEND TIME IN FLUTTERING OVER THEIR BOOKES....
 AS BIRDS THAT ENTERING BY THE CHIMNEY, AND FINDING THEMSELVES INCLOSED IN A CHAMBER,
 FLUTTER AT THE FALSE LIGHT OF A GLASSE WINDOW,
 FOR WANT OF WIT TO CONSIDER WHICH WAY THEY CAME IN....
           LEVIATHAN
 Job cpu time:       0 days  1 hours 37 minutes 54.1 seconds.
 File lengths (MBytes):  RWF=     58 Int=      0 D2E=      0 Chk=      6 Scr=      1
 Normal termination of Gaussian 09 at Sat Jan 19 10:48:51 2019.
