 Entering Gaussian System, Link 0=/data/szalewicgrp/connornm/opt/Gaussian/g09-M05-par/g09/g09
 AtFile(1): blind-aug.gbs
 Initial command:
 /data/szalewicgrp/connornm/opt/Gaussian/g09-M05-par/g09/l1.exe "/scratch/local/Gau-5717.inp" -scrdir="/scratch/local/"
 Entering Link 1 = /data/szalewicgrp/connornm/opt/Gaussian/g09-M05-par/g09/l1.exe PID=      5718.
  
 Copyright (c) 1988,1990,1992,1993,1995,1998,2003,2009,2013,
            Gaussian, Inc.  All Rights Reserved.
  
 This is part of the Gaussian(R) 09 program.  It is based on
 the Gaussian(R) 03 system (copyright 2003, Gaussian, Inc.),
 the Gaussian(R) 98 system (copyright 1998, Gaussian, Inc.),
 the Gaussian(R) 94 system (copyright 1995, Gaussian, Inc.),
 the Gaussian 92(TM) system (copyright 1992, Gaussian, Inc.),
 the Gaussian 90(TM) system (copyright 1990, Gaussian, Inc.),
 the Gaussian 88(TM) system (copyright 1988, Gaussian, Inc.),
 the Gaussian 86(TM) system (copyright 1986, Carnegie Mellon
 University), and the Gaussian 82(TM) system (copyright 1983,
 Carnegie Mellon University). Gaussian is a federally registered
 trademark of Gaussian, Inc.
  
 This software contains proprietary and confidential information,
 including trade secrets, belonging to Gaussian, Inc.
  
 This software is provided under written license and may be
 used, copied, transmitted, or stored only in accord with that
 written license.
  
 The following legend is applicable only to US Government
 contracts under FAR:
  
                    RESTRICTED RIGHTS LEGEND
  
 Use, reproduction and disclosure by the US Government is
 subject to restrictions as set forth in subparagraphs (a)
 and (c) of the Commercial Computer Software - Restricted
 Rights clause in FAR 52.227-19.
  
 Gaussian, Inc.
 340 Quinnipiac St., Bldg. 40, Wallingford CT 06492
  
  
 ---------------------------------------------------------------
 Warning -- This program may not be used in any manner that
 competes with the business of Gaussian, Inc. or will provide
 assistance to any competitor of Gaussian, Inc.  The licensee
 of this program is prohibited from giving any competitor of
 Gaussian, Inc. access to this program.  By using this program,
 the user acknowledges that Gaussian, Inc. is engaged in the
 business of creating and licensing software in the field of
 computational chemistry and represents and warrants to the
 licensee that it is not a competitor of Gaussian, Inc. and that
 it will not use this program in any manner prohibited above.
 ---------------------------------------------------------------
  

 Cite this work as:
 Gaussian 09, Revision D.01,
 M. J. Frisch, G. W. Trucks, H. B. Schlegel, G. E. Scuseria, 
 M. A. Robb, J. R. Cheeseman, G. Scalmani, V. Barone, B. Mennucci, 
 G. A. Petersson, H. Nakatsuji, M. Caricato, X. Li, H. P. Hratchian, 
 A. F. Izmaylov, J. Bloino, G. Zheng, J. L. Sonnenberg, M. Hada, 
 M. Ehara, K. Toyota, R. Fukuda, J. Hasegawa, M. Ishida, T. Nakajima, 
 Y. Honda, O. Kitao, H. Nakai, T. Vreven, J. A. Montgomery, Jr., 
 J. E. Peralta, F. Ogliaro, M. Bearpark, J. J. Heyd, E. Brothers, 
 K. N. Kudin, V. N. Staroverov, T. Keith, R. Kobayashi, J. Normand, 
 K. Raghavachari, A. Rendell, J. C. Burant, S. S. Iyengar, J. Tomasi, 
 M. Cossi, N. Rega, J. M. Millam, M. Klene, J. E. Knox, J. B. Cross, 
 V. Bakken, C. Adamo, J. Jaramillo, R. Gomperts, R. E. Stratmann, 
 O. Yazyev, A. J. Austin, R. Cammi, C. Pomelli, J. W. Ochterski, 
 R. L. Martin, K. Morokuma, V. G. Zakrzewski, G. A. Voth, 
 P. Salvador, J. J. Dannenberg, S. Dapprich, A. D. Daniels, 
 O. Farkas, J. B. Foresman, J. V. Ortiz, J. Cioslowski, 
 and D. J. Fox, Gaussian, Inc., Wallingford CT, 2013.
 
 ******************************************
 Gaussian 09:  AS64L-G09RevD.01 24-Apr-2013
                20-Jan-2019 
 ******************************************
 %Chk=BLIND02438
 %Mem=1GB
 %NProcShared=48
 Will use up to   48 processors via shared memory.
 ---------------------------------------------
 #T M05/Gen test Massage SCF=(fermi,maxcyc=60)
 ---------------------------------------------
 -------
 M05 opt
 -------
 Symbolic Z-matrix:
 Charge =  0 Multiplicity = 1
 6                     0.31573  -0.92195  -0.30238 
 6                     1.10211  -0.3626    0.74384 
 16                   -0.52479  -0.00039  -1.54042 
 16                    1.33696   1.37511   0.98837 
 6                    -0.94355   1.46006  -0.62617 
 6                    -0.20247   2.00378   0.37524 
 6                     0.37196  -2.29969  -0.23943 
 7                     1.71263  -1.19581   1.55061 
 16                    1.40181  -2.76089   1.07645 
 6                    -2.15018   2.07294  -1.07282 
 7                    -3.1262    2.54894  -1.48757 
 6                    -0.60675   3.21189   1.01633 
 7                    -0.88215   4.20903   1.54621 
 6                    -0.25078  -3.24477  -1.09042 
 7                    -0.74677  -4.03439  -1.78439 
 6                     0.35205  -0.92097   5.26177 
 6                    -0.62584  -0.40528   4.36532 
 16                    1.48231   0.04938   6.19422 
 16                   -0.88562   1.32021   4.06565 
 6                     0.49933   1.49569   6.48758 
 6                    -0.43798   1.99789   5.64089 
 6                     0.32582  -2.30076   5.23352 
 7                    -1.35108  -1.27154   3.70089 
 16                   -0.874    -2.81712   4.09394 
 6                     0.81374   2.14609   7.71609 
 7                     1.1217    2.65376   8.7154 
 6                    -1.14204   3.19844   5.95218 
 7                    -1.71829   4.18804   6.15106 
 6                     1.13389  -3.21043   5.95787 
 7                     1.79442  -3.97143   6.53725 
 
                    Distance matrix (angstroms):
                    1          2          3          4          5
     1  C    0.000000
     2  C    1.423315   0.000000
     3  S    1.757418   2.827694   0.000000
     4  S    2.825849   1.770477   3.428253   0.000000
     5  C    2.713774   3.063280   1.773167   2.795470   0.000000
     6  C    3.047557   2.727187   2.791121   1.772288   1.359281
     7  C    1.380327   2.291783   2.789903   3.992857   4.001979
     8  N    2.336642   1.310672   3.998700   2.658358   4.341342
     9  S    2.542129   2.439721   4.263822   4.137445   5.120151
    10  C    3.955208   4.450782   2.675676   4.110426   1.425163
    11  N    5.029770   5.597745   3.642685   5.237162   2.586817
    12  C    4.436049   3.971317   4.106384   2.674416   2.424897
    13  N    5.583831   5.047859   5.232040   3.642352   3.504263
    14  C    2.517432   3.674472   3.286888   5.309014   4.778168
    15  N    3.607292   4.826214   4.047461   6.425950   5.618639
    16  C    5.564264   4.613681   6.919983   4.950147   6.481947
    17  C    4.789667   4.012822   5.920471   4.292567   5.338102
    18  S    6.671594   5.479138   7.990975   5.373973   7.375125
    19  S    5.054720   4.221059   5.770810   3.796383   4.694257
    20  C    7.209871   6.066890   8.230187   5.563943   7.258689
    21  C    6.664526   5.650206   7.454654   5.018381   6.310373
    22  C    5.705028   4.951394   7.204272   5.705760   7.077492
    23  N    4.350479   3.948226   5.456191   4.646301   5.133337
    24  S    4.933027   4.599224   6.308884   5.666368   6.370125
    25  C    8.599804   7.415451   9.595939   6.791931   8.552888
    26  N    9.734246   8.523177  10.720884   7.835064   9.641318
    27  C    7.630349   6.696569   8.170229   5.840325   6.807057
    28  N    8.479157   7.609271   8.838909   6.625744   7.346625
    29  C    6.715446   5.941151   8.323461   6.764937   8.335389
    30  N    7.633239   6.860507   9.294984   7.719120   9.397446
                    6          7          8          9         10
     6  C    0.000000
     7  C    4.384939   0.000000
     8  N    3.909794   2.494036   0.000000
     9  S    5.076167   1.733444   1.664607   0.000000
    10  C    2.428007   5.116215   5.699860   6.371958   0.000000
    11  N    3.509330   6.107712   6.831389   7.434461   1.162408
    12  C    1.426163   5.736923   5.009263   6.301738   2.836178
    13  N    2.587713   6.864751   5.995430   7.349618   3.609722
    14  C    5.449573   1.416040   3.876636   2.767765   5.646781
    15  N    6.435818   2.578302   5.022796   3.797715   6.306769
    16  C    5.721873   5.671370   3.962245   4.690857   7.439868
    17  C    4.680121   5.078201   3.743788   4.525139   6.167537
    18  S    6.365432   6.938506   4.813173   5.839146   8.372551
    19  S    3.814851   5.763584   4.405300   5.551844   5.345049
    20  C    6.173443   7.724884   5.752383   6.943575   8.031983
    21  C    5.270913   7.328253   5.617395   6.845786   6.929003
    22  C    6.512374   5.473140   4.087536   4.318639   8.064096
    23  N    4.806976   4.421777   3.743766   4.084634   5.883232
    24  S    6.125422   4.538527   3.973391   3.779904   7.227498
    25  C    7.412218   9.124163   7.070313   8.277013   9.275506
    26  N    8.469602  10.260980   8.154906   9.367513  10.336911
    27  C    5.780335   8.417702   6.843419   8.109098   7.185658
    28  N    6.358363   9.343349   7.869000   9.152827   7.539532
    29  C    7.754975   6.310029   4.880324   4.909387   9.387740
    30  N    8.812551   7.123304   5.707654   5.607126  10.488439
                   11         12         13         14         15
    11  N    0.000000
    12  C    3.613393   0.000000
    13  N    4.122555   1.162293   0.000000
    14  C    6.480188   6.800997   7.931563   0.000000
    15  N    7.006418   7.769948   8.891861   1.162367   0.000000
    16  C    8.348173   6.001964   6.453336   6.790714   7.781335
    17  C    7.016798   4.929501   5.413401   6.161863   7.141712
    18  S    9.300320   6.416868   6.670636   8.180529   9.236029
    19  S    6.112950   3.599248   3.833129   6.915720   7.931833
    20  C    8.823648   5.839808   5.804123   8.969996  10.027967
    21  C    7.638391   4.784227   4.674700   8.534111   9.571753
    22  C    8.978246   7.003115   7.578442   6.419956   7.308008
    23  N    6.683353   5.278452   5.907557   5.297267   6.171457
    24  S    8.063511   6.774369   7.473810   5.239171   6.004392
    25  C   10.019613   6.931126   6.723033  10.380231  11.440830
    26  N   11.052427   7.910422   7.604707  11.525211  12.588411
    27  C    7.727132   4.964815   4.527849   9.586847  10.598330
    28  N    7.938353   5.343584   4.680192  10.480429  11.468372
    29  C   10.332142   8.288234   8.864288   7.183096   8.009894
    30  N   11.450994   9.372628   9.949592   7.930464   8.701230
                   16         17         18         19         20
    16  C    0.000000
    17  C    1.423315   0.000000
    18  S    1.757418   2.827694   0.000000
    19  S    2.825849   1.770477   3.428253   0.000000
    20  C    2.713774   3.063280   1.773167   2.795470   0.000000
    21  C    3.047557   2.727187   2.791121   1.772288   1.359281
    22  C    1.380327   2.291783   2.789903   3.992857   4.001979
    23  N    2.336642   1.310672   3.998700   2.658358   4.341342
    24  S    2.542129   2.439721   4.263822   4.137445   5.120151
    25  C    3.955208   4.450782   2.675676   4.110426   1.425163
    26  N    5.029770   5.597745   3.642685   5.237162   2.586817
    27  C    4.436049   3.971317   4.106384   2.674416   2.424897
    28  N    5.583831   5.047859   5.232040   3.642352   3.504263
    29  C    2.517432   3.674472   3.286888   5.309014   4.778168
    30  N    3.607292   4.826214   4.047461   6.425950   5.618639
                   21         22         23         24         25
    21  C    0.000000
    22  C    4.384939   0.000000
    23  N    3.909794   2.494036   0.000000
    24  S    5.076167   1.733444   1.664607   0.000000
    25  C    2.428007   5.116215   5.699860   6.371958   0.000000
    26  N    3.509330   6.107712   6.831389   7.434461   1.162408
    27  C    1.426163   5.736923   5.009263   6.301738   2.836178
    28  N    2.587713   6.864751   5.995430   7.349618   3.609722
    29  C    5.449573   1.416040   3.876636   2.767765   5.646781
    30  N    6.435818   2.578302   5.022796   3.797715   6.306769
                   26         27         28         29         30
    26  N    0.000000
    27  C    3.613393   0.000000
    28  N    4.122555   1.162293   0.000000
    29  C    6.480188   6.800997   7.931563   0.000000
    30  N    7.006418   7.769948   8.891861   1.162367   0.000000
 Symmetry turned off by external request.
 Framework group  C1[X(C16N8S6)]
 Deg. of freedom    84
 Rotational constants (GHZ):      0.1540170      0.0968573      0.0677022
   714 basis functions,  1518 primitive gaussians,   774 cartesian basis functions
   124 alpha electrons      124 beta electrons
       nuclear repulsion energy      3656.5313481132 Hartrees.
 IMHF & INEx in M05                  599485                  400514
 NAtoms=   30 NActive=   30 NUniq=   30 SFac= 1.00D+00 NAtFMM=   60 NAOKFM=F Big=F
 PrsmSu:  requested number of processors reduced to:  25 ShMem   1 Linda.
 ExpMin= 3.99D-02 ExpMax= 1.11D+05 ExpMxC= 1.07D+03 IAcc=3 IRadAn=         5 AccDes= 0.00D+00
 Harris functional with IExCor= 1009 and IRadAn=       5 diagonalized for initial guess.
 HarFok:  IExCor= 1009 AccDes= 0.00D+00 IRadAn=         5 IDoV= 1 UseB2=F ITyADJ=14
 ICtDFT=  3500011 ScaDFX=  1.000000  1.000000  1.000000  1.000000
 FoFCou: FMM=F IPFlag=           0 FMFlag=      100000 FMFlg1=           0
         NFxFlg=           0 DoJE=T BraDBF=F KetDBF=T FulRan=T
         wScrn=  0.000000 ICntrl=     500 IOpCl=  0 I1Cent=   200000004 NGrid=           0
         NMat0=    1 NMatS0=      1 NMatT0=    0 NMatD0=    1 NMtDS0=    0 NMtDT0=    0
 Symmetry not used in FoFCou.
