 Entering Gaussian System, Link 0=/data/szalewicgrp/connornm/opt/Gaussian/g09-M05-par/g09/g09
 AtFile(1): blind-aug.gbs
 Initial command:
 /data/szalewicgrp/connornm/opt/Gaussian/g09-M05-par/g09/l1.exe "/scratch/local/Gau-16300.inp" -scrdir="/scratch/local/"
 Entering Link 1 = /data/szalewicgrp/connornm/opt/Gaussian/g09-M05-par/g09/l1.exe PID=     16301.
  
 Copyright (c) 1988,1990,1992,1993,1995,1998,2003,2009,2013,
            Gaussian, Inc.  All Rights Reserved.
  
 This is part of the Gaussian(R) 09 program.  It is based on
 the Gaussian(R) 03 system (copyright 2003, Gaussian, Inc.),
 the Gaussian(R) 98 system (copyright 1998, Gaussian, Inc.),
 the Gaussian(R) 94 system (copyright 1995, Gaussian, Inc.),
 the Gaussian 92(TM) system (copyright 1992, Gaussian, Inc.),
 the Gaussian 90(TM) system (copyright 1990, Gaussian, Inc.),
 the Gaussian 88(TM) system (copyright 1988, Gaussian, Inc.),
 the Gaussian 86(TM) system (copyright 1986, Carnegie Mellon
 University), and the Gaussian 82(TM) system (copyright 1983,
 Carnegie Mellon University). Gaussian is a federally registered
 trademark of Gaussian, Inc.
  
 This software contains proprietary and confidential information,
 including trade secrets, belonging to Gaussian, Inc.
  
 This software is provided under written license and may be
 used, copied, transmitted, or stored only in accord with that
 written license.
  
 The following legend is applicable only to US Government
 contracts under FAR:
  
                    RESTRICTED RIGHTS LEGEND
  
 Use, reproduction and disclosure by the US Government is
 subject to restrictions as set forth in subparagraphs (a)
 and (c) of the Commercial Computer Software - Restricted
 Rights clause in FAR 52.227-19.
  
 Gaussian, Inc.
 340 Quinnipiac St., Bldg. 40, Wallingford CT 06492
  
  
 ---------------------------------------------------------------
 Warning -- This program may not be used in any manner that
 competes with the business of Gaussian, Inc. or will provide
 assistance to any competitor of Gaussian, Inc.  The licensee
 of this program is prohibited from giving any competitor of
 Gaussian, Inc. access to this program.  By using this program,
 the user acknowledges that Gaussian, Inc. is engaged in the
 business of creating and licensing software in the field of
 computational chemistry and represents and warrants to the
 licensee that it is not a competitor of Gaussian, Inc. and that
 it will not use this program in any manner prohibited above.
 ---------------------------------------------------------------
  

 Cite this work as:
 Gaussian 09, Revision D.01,
 M. J. Frisch, G. W. Trucks, H. B. Schlegel, G. E. Scuseria, 
 M. A. Robb, J. R. Cheeseman, G. Scalmani, V. Barone, B. Mennucci, 
 G. A. Petersson, H. Nakatsuji, M. Caricato, X. Li, H. P. Hratchian, 
 A. F. Izmaylov, J. Bloino, G. Zheng, J. L. Sonnenberg, M. Hada, 
 M. Ehara, K. Toyota, R. Fukuda, J. Hasegawa, M. Ishida, T. Nakajima, 
 Y. Honda, O. Kitao, H. Nakai, T. Vreven, J. A. Montgomery, Jr., 
 J. E. Peralta, F. Ogliaro, M. Bearpark, J. J. Heyd, E. Brothers, 
 K. N. Kudin, V. N. Staroverov, T. Keith, R. Kobayashi, J. Normand, 
 K. Raghavachari, A. Rendell, J. C. Burant, S. S. Iyengar, J. Tomasi, 
 M. Cossi, N. Rega, J. M. Millam, M. Klene, J. E. Knox, J. B. Cross, 
 V. Bakken, C. Adamo, J. Jaramillo, R. Gomperts, R. E. Stratmann, 
 O. Yazyev, A. J. Austin, R. Cammi, C. Pomelli, J. W. Ochterski, 
 R. L. Martin, K. Morokuma, V. G. Zakrzewski, G. A. Voth, 
 P. Salvador, J. J. Dannenberg, S. Dapprich, A. D. Daniels, 
 O. Farkas, J. B. Foresman, J. V. Ortiz, J. Cioslowski, 
 and D. J. Fox, Gaussian, Inc., Wallingford CT, 2013.
 
 ******************************************
 Gaussian 09:  AS64L-G09RevD.01 24-Apr-2013
                19-Jan-2019 
 ******************************************
 %Chk=BLIND00506_mA
 %Mem=1GB
 %NProcShared=48
 Will use up to   48 processors via shared memory.
 ---------------------------------------------
 #T M05/Gen test Massage SCF=(fermi,maxcyc=60)
 ---------------------------------------------
 -------
 M05 opt
 -------
 Symbolic Z-matrix:
 Charge =  0 Multiplicity = 1
 6                    -0.56484  -0.82754   0.19299 
 6                     0.68909  -0.82095   0.86637 
 16                   -1.49391   0.60283  -0.23053 
 16                    1.54078   0.6494    1.36365 
 6                    -0.18437   1.75871  -0.53581 
 6                     1.01745   1.77537   0.09901 
 6                    -0.97415  -2.12958  -0.01304 
 7                     1.2213   -1.9819    1.16101 
 16                    0.20659  -3.2038    0.66278 
 6                    -0.52159   2.74131  -1.51144 
 7                    -0.85101   3.53466  -2.29456 
 6                     1.98697   2.78093  -0.18877 
 7                     2.79425   3.59724  -0.37008 
 6                    -2.16092  -2.5904   -0.63303 
 7                    -3.13394  -2.98633  -1.1306 
 
                    Distance matrix (angstroms):
                    1          2          3          4          5
     1  C    0.000000
     2  C    1.423315   0.000000
     3  S    1.757418   2.827694   0.000000
     4  S    2.825849   1.770477   3.428253   0.000000
     5  C    2.713774   3.063280   1.773167   2.795470   0.000000
     6  C    3.047557   2.727187   2.791121   1.772288   1.359281
     7  C    1.380327   2.291783   2.789903   3.992857   4.001979
     8  N    2.336642   1.310672   3.998700   2.658358   4.341342
     9  S    2.542129   2.439721   4.263822   4.137445   5.120151
    10  C    3.955208   4.450782   2.675676   4.110426   1.425163
    11  N    5.029770   5.597745   3.642685   5.237162   2.586817
    12  C    4.436049   3.971317   4.106384   2.674416   2.424897
    13  N    5.583831   5.047859   5.232040   3.642352   3.504263
    14  C    2.517432   3.674472   3.286888   5.309014   4.778168
    15  N    3.607292   4.826214   4.047461   6.425950   5.618639
                    6          7          8          9         10
     6  C    0.000000
     7  C    4.384939   0.000000
     8  N    3.909794   2.494036   0.000000
     9  S    5.076167   1.733444   1.664607   0.000000
    10  C    2.428007   5.116215   5.699860   6.371958   0.000000
    11  N    3.509330   6.107712   6.831389   7.434461   1.162408
    12  C    1.426163   5.736923   5.009263   6.301738   2.836178
    13  N    2.587713   6.864751   5.995430   7.349618   3.609722
    14  C    5.449573   1.416040   3.876636   2.767765   5.646781
    15  N    6.435818   2.578302   5.022796   3.797715   6.306769
                   11         12         13         14         15
    11  N    0.000000
    12  C    3.613393   0.000000
    13  N    4.122555   1.162293   0.000000
    14  C    6.480188   6.800997   7.931563   0.000000
    15  N    7.006418   7.769948   8.891861   1.162367   0.000000
 Symmetry turned off by external request.
 Framework group  C1[X(C8N4S3)]
 Deg. of freedom    39
 Rotational constants (GHZ):      0.7722167      0.3388923      0.2463240
   357 basis functions,   759 primitive gaussians,   387 cartesian basis functions
    62 alpha electrons       62 beta electrons
       nuclear repulsion energy      1166.1400390424 Hartrees.
 IMHF & INEx in M05                  599485                  400514
 NAtoms=   15 NActive=   15 NUniq=   15 SFac= 1.00D+00 NAtFMM=   60 NAOKFM=F Big=F
 PrsmSu:  requested number of processors reduced to:  34 ShMem   1 Linda.
 ExpMin= 3.99D-02 ExpMax= 1.11D+05 ExpMxC= 1.07D+03 IAcc=3 IRadAn=         5 AccDes= 0.00D+00
 Harris functional with IExCor= 1009 and IRadAn=       5 diagonalized for initial guess.
 HarFok:  IExCor= 1009 AccDes= 0.00D+00 IRadAn=         5 IDoV= 1 UseB2=F ITyADJ=14
 ICtDFT=  3500011 ScaDFX=  1.000000  1.000000  1.000000  1.000000
 FoFCou: FMM=F IPFlag=           0 FMFlag=      100000 FMFlg1=           0
         NFxFlg=           0 DoJE=T BraDBF=F KetDBF=T FulRan=T
         wScrn=  0.000000 ICntrl=     500 IOpCl=  0 I1Cent=   200000004 NGrid=           0
         NMat0=    1 NMatS0=      1 NMatT0=    0 NMatD0=    1 NMtDS0=    0 NMtDT0=    0
 Symmetry not used in FoFCou.
 SCF Done:  E(RM05) =  -1724.76148160     A.U. after   17 cycles
            NFock= 17  Conv=0.51D-08     -V/T= 2.0061

 **********************************************************************

            Population analysis using the SCF density.

 **********************************************************************

 Alpha  occ. eigenvalues --  -90.56431 -90.53637 -90.53181 -15.08622 -15.05416
 Alpha  occ. eigenvalues --  -15.04969 -15.04934 -10.89945 -10.89827 -10.89736
 Alpha  occ. eigenvalues --  -10.88752 -10.87414 -10.84946 -10.84331 -10.84310
 Alpha  occ. eigenvalues --   -8.57526  -8.55036  -8.54608  -6.40064  -6.39713
 Alpha  occ. eigenvalues --   -6.39401  -6.37598  -6.37283  -6.37162  -6.36852
 Alpha  occ. eigenvalues --   -6.36822  -6.36391  -1.20533  -1.12895  -1.12139
 Alpha  occ. eigenvalues --   -1.11337  -1.07643  -1.03801  -0.98824  -0.97395
 Alpha  occ. eigenvalues --   -0.88002  -0.84555  -0.82236  -0.73687  -0.71296
 Alpha  occ. eigenvalues --   -0.67838  -0.64612  -0.59530  -0.57258  -0.55386
 Alpha  occ. eigenvalues --   -0.53385  -0.52647  -0.52242  -0.51890  -0.50883
 Alpha  occ. eigenvalues --   -0.50387  -0.49356  -0.48215  -0.46805  -0.46074
 Alpha  occ. eigenvalues --   -0.45933  -0.45296  -0.43720  -0.43113  -0.39488
 Alpha  occ. eigenvalues --   -0.37627  -0.33120
 Alpha virt. eigenvalues --   -0.09329  -0.08268  -0.02097  -0.01262  -0.00499
 Alpha virt. eigenvalues --   -0.00361   0.00154   0.01255   0.02025   0.02230
 Alpha virt. eigenvalues --    0.02396   0.02958   0.03192   0.04005   0.04280
 Alpha virt. eigenvalues --    0.04488   0.05429   0.06009   0.06302   0.07068
 Alpha virt. eigenvalues --    0.07276   0.07525   0.07709   0.08291   0.08495
 Alpha virt. eigenvalues --    0.09378   0.10094   0.10394   0.10528   0.10812
 Alpha virt. eigenvalues --    0.11287   0.11390   0.11977   0.12527   0.13229
 Alpha virt. eigenvalues --    0.13493   0.13936   0.14455   0.15075   0.15191
 Alpha virt. eigenvalues --    0.15906   0.16273   0.16678   0.16811   0.17190
 Alpha virt. eigenvalues --    0.17364   0.17843   0.18621   0.19059   0.19574
 Alpha virt. eigenvalues --    0.19859   0.20244   0.20686   0.20951   0.21266
 Alpha virt. eigenvalues --    0.21885   0.22209   0.22583   0.22825   0.23615
 Alpha virt. eigenvalues --    0.23753   0.24115   0.24375   0.24706   0.25257
 Alpha virt. eigenvalues --    0.25694   0.25857   0.26228   0.26625   0.26748
 Alpha virt. eigenvalues --    0.27064   0.28333   0.29196   0.29661   0.30369
 Alpha virt. eigenvalues --    0.30712   0.32419   0.33461   0.34157   0.34720
 Alpha virt. eigenvalues --    0.34948   0.35471   0.36121   0.36935   0.37597
 Alpha virt. eigenvalues --    0.38155   0.39580   0.40728   0.41174   0.42053
 Alpha virt. eigenvalues --    0.42121   0.43486   0.44135   0.45737   0.45981
 Alpha virt. eigenvalues --    0.46964   0.48550   0.49578   0.50230   0.50596
 Alpha virt. eigenvalues --    0.51531   0.51858   0.53528   0.54165   0.54428
 Alpha virt. eigenvalues --    0.54702   0.55464   0.55736   0.55839   0.56453
 Alpha virt. eigenvalues --    0.57769   0.58138   0.58558   0.59216   0.60311
 Alpha virt. eigenvalues --    0.60550   0.61100   0.61590   0.62105   0.62713
 Alpha virt. eigenvalues --    0.63719   0.64719   0.64957   0.66009   0.66559
 Alpha virt. eigenvalues --    0.67688   0.68188   0.68805   0.70107   0.70414
 Alpha virt. eigenvalues --    0.71047   0.72862   0.73471   0.73854   0.75373
 Alpha virt. eigenvalues --    0.75566   0.76455   0.77062   0.77551   0.77843
 Alpha virt. eigenvalues --    0.78246   0.79253   0.79761   0.79879   0.81109
 Alpha virt. eigenvalues --    0.81536   0.82548   0.83279   0.83958   0.84872
 Alpha virt. eigenvalues --    0.85698   0.85940   0.87125   0.87250   0.88405
 Alpha virt. eigenvalues --    0.88459   0.89345   0.89666   0.89829   0.90732
 Alpha virt. eigenvalues --    0.91171   0.91727   0.92828   0.93722   0.94367
 Alpha virt. eigenvalues --    0.95432   0.95566   0.97325   0.98744   0.99311
 Alpha virt. eigenvalues --    0.99849   1.01205   1.02847   1.03574   1.04751
 Alpha virt. eigenvalues --    1.05760   1.06743   1.08041   1.08542   1.09633
 Alpha virt. eigenvalues --    1.10235   1.11403   1.13196   1.13605   1.14404
 Alpha virt. eigenvalues --    1.15326   1.17102   1.18345   1.20284   1.20630
 Alpha virt. eigenvalues --    1.21611   1.22704   1.23935   1.24220   1.26559
 Alpha virt. eigenvalues --    1.27346   1.29759   1.30248   1.32270   1.34128
 Alpha virt. eigenvalues --    1.37313   1.40084   1.40262   1.41566   1.42731
 Alpha virt. eigenvalues --    1.43616   1.45023   1.46463   1.47273   1.49369
 Alpha virt. eigenvalues --    1.49823   1.50475   1.51642   1.51871   1.52332
 Alpha virt. eigenvalues --    1.53718   1.54194   1.55430   1.56138   1.56451
 Alpha virt. eigenvalues --    1.56795   1.58486   1.59728   1.60392   1.60518
 Alpha virt. eigenvalues --    1.62132   1.63281   1.64921   1.66030   1.67548
 Alpha virt. eigenvalues --    1.68617   1.69175   1.70471   1.71321   1.74153
 Alpha virt. eigenvalues --    1.76823   1.77076   1.79016   1.79377   1.81044
 Alpha virt. eigenvalues --    1.82958   1.85921   1.88148   1.89704   1.90606
 Alpha virt. eigenvalues --    1.91368   1.94486   1.95007   1.97392   2.00542
 Alpha virt. eigenvalues --    2.00827   2.05449   2.07037   2.08351   2.08472
 Alpha virt. eigenvalues --    2.10900   2.13938   2.18607   2.20234   2.24592
 Alpha virt. eigenvalues --    2.27641   2.30684   2.37027   2.37402   2.38002
 Alpha virt. eigenvalues --    2.38279   2.39370   2.39931   2.40470   2.42152
 Alpha virt. eigenvalues --    2.42559   2.43753   2.45058   2.51019   2.54996
 Alpha virt. eigenvalues --    2.61154   2.64129   2.68330   2.71900   2.73264
 Alpha virt. eigenvalues --    2.76308   2.78780   2.81840   2.94680   2.99731
 Alpha virt. eigenvalues --    3.01875   3.09942   3.11449   3.15939   3.17850
 Alpha virt. eigenvalues --    3.24295   3.27131   3.35295   3.59309   3.74892
          Condensed to atoms (all electrons):
 Mulliken charges:
               1
     1  C    0.618885
     2  C   -0.109783
     3  S    0.374633
     4  S    0.297167
     5  C    1.040358
     6  C    1.132201
     7  C    0.787324
     8  N   -1.083148
     9  S    0.557384
    10  C   -1.129878
    11  N   -0.168032
    12  C   -1.100625
    13  N   -0.180505
    14  C   -0.853018
    15  N   -0.182964
 Sum of Mulliken charges =  -0.00000
 Mulliken charges with hydrogens summed into heavy atoms:
               1
     1  C    0.618885
     2  C   -0.109783
     3  S    0.374633
     4  S    0.297167
     5  C    1.040358
     6  C    1.132201
     7  C    0.787324
     8  N   -1.083148
     9  S    0.557384
    10  C   -1.129878
    11  N   -0.168032
    12  C   -1.100625
    13  N   -0.180505
    14  C   -0.853018
    15  N   -0.182964
 Electronic spatial extent (au):  <R**2>=           4013.7174
 Charge=             -0.0000 electrons
 Dipole moment (field-independent basis, Debye):
    X=              0.2365    Y=             -3.5007    Z=              3.1049  Tot=              4.6852

 Test job not archived.
 1\1\GINC-CHIMERA-NODE59\SP\RM05\Gen\C8N4S3\CONNORNM\19-Jan-2019\0\\#T 
 M05/Gen test Massage SCF=(fermi,maxcyc=60)\\M05 opt\\0,1\C,0,-0.564835
 48,-0.82754141,0.19298963\C,0,0.68909372,-0.82095159,0.86637273\S,0,-1
 .49390863,0.60283368,-0.23052756\S,0,1.54078302,0.64939899,1.36364815\
 C,0,-0.18437192,1.7587057,-0.53580706\C,0,1.01745105,1.77536871,0.0990
 0625\C,0,-0.97414992,-2.12958456,-0.01304081\N,0,1.22129972,-1.9819006
 8,1.16101493\S,0,0.2065932,-3.20380282,0.66277529\C,0,-0.52158512,2.74
 131198,-1.51144111\N,0,-0.85100586,3.53465819,-2.29456102\C,0,1.986974
 88,2.78092903,-0.18876782\N,0,2.79425187,3.59723589,-0.37007722\C,0,-2
 .16092386,-2.59039513,-0.63303248\N,0,-3.13393669,-2.98633258,-1.13060
 206\\Version=AS64L-G09RevD.01\HF=-1724.7614816\RMSD=5.133e-09\Dipole=0
 .0930335,-1.3772854,1.2215579\Quadrupole=-2.5243106,-3.0892166,5.61352
 72,-8.8444262,-4.0983579,4.4796619\PG=C01 [X(C8N4S3)]\\@


 IF YOU GIVE A BOY AND A PIG EVERYTHING THEY WANT,
 YOU'LL GET A BAD BOY AND A GOOD PIG.
 Job cpu time:       0 days  1 hours 49 minutes 28.8 seconds.
 File lengths (MBytes):  RWF=     58 Int=      0 D2E=      0 Chk=      6 Scr=      1
 Normal termination of Gaussian 09 at Sat Jan 19 10:50:05 2019.
