 Entering Gaussian System, Link 0=/data/szalewicgrp/connornm/opt/Gaussian/g09-M05-par/g09/g09
 AtFile(1): blind-aug.gbs
 Initial command:
 /data/szalewicgrp/connornm/opt/Gaussian/g09-M05-par/g09/l1.exe "/scratch/local/Gau-1772.inp" -scrdir="/scratch/local/"
 Entering Link 1 = /data/szalewicgrp/connornm/opt/Gaussian/g09-M05-par/g09/l1.exe PID=      1773.
  
 Copyright (c) 1988,1990,1992,1993,1995,1998,2003,2009,2013,
            Gaussian, Inc.  All Rights Reserved.
  
 This is part of the Gaussian(R) 09 program.  It is based on
 the Gaussian(R) 03 system (copyright 2003, Gaussian, Inc.),
 the Gaussian(R) 98 system (copyright 1998, Gaussian, Inc.),
 the Gaussian(R) 94 system (copyright 1995, Gaussian, Inc.),
 the Gaussian 92(TM) system (copyright 1992, Gaussian, Inc.),
 the Gaussian 90(TM) system (copyright 1990, Gaussian, Inc.),
 the Gaussian 88(TM) system (copyright 1988, Gaussian, Inc.),
 the Gaussian 86(TM) system (copyright 1986, Carnegie Mellon
 University), and the Gaussian 82(TM) system (copyright 1983,
 Carnegie Mellon University). Gaussian is a federally registered
 trademark of Gaussian, Inc.
  
 This software contains proprietary and confidential information,
 including trade secrets, belonging to Gaussian, Inc.
  
 This software is provided under written license and may be
 used, copied, transmitted, or stored only in accord with that
 written license.
  
 The following legend is applicable only to US Government
 contracts under FAR:
  
                    RESTRICTED RIGHTS LEGEND
  
 Use, reproduction and disclosure by the US Government is
 subject to restrictions as set forth in subparagraphs (a)
 and (c) of the Commercial Computer Software - Restricted
 Rights clause in FAR 52.227-19.
  
 Gaussian, Inc.
 340 Quinnipiac St., Bldg. 40, Wallingford CT 06492
  
  
 ---------------------------------------------------------------
 Warning -- This program may not be used in any manner that
 competes with the business of Gaussian, Inc. or will provide
 assistance to any competitor of Gaussian, Inc.  The licensee
 of this program is prohibited from giving any competitor of
 Gaussian, Inc. access to this program.  By using this program,
 the user acknowledges that Gaussian, Inc. is engaged in the
 business of creating and licensing software in the field of
 computational chemistry and represents and warrants to the
 licensee that it is not a competitor of Gaussian, Inc. and that
 it will not use this program in any manner prohibited above.
 ---------------------------------------------------------------
  

 Cite this work as:
 Gaussian 09, Revision D.01,
 M. J. Frisch, G. W. Trucks, H. B. Schlegel, G. E. Scuseria, 
 M. A. Robb, J. R. Cheeseman, G. Scalmani, V. Barone, B. Mennucci, 
 G. A. Petersson, H. Nakatsuji, M. Caricato, X. Li, H. P. Hratchian, 
 A. F. Izmaylov, J. Bloino, G. Zheng, J. L. Sonnenberg, M. Hada, 
 M. Ehara, K. Toyota, R. Fukuda, J. Hasegawa, M. Ishida, T. Nakajima, 
 Y. Honda, O. Kitao, H. Nakai, T. Vreven, J. A. Montgomery, Jr., 
 J. E. Peralta, F. Ogliaro, M. Bearpark, J. J. Heyd, E. Brothers, 
 K. N. Kudin, V. N. Staroverov, T. Keith, R. Kobayashi, J. Normand, 
 K. Raghavachari, A. Rendell, J. C. Burant, S. S. Iyengar, J. Tomasi, 
 M. Cossi, N. Rega, J. M. Millam, M. Klene, J. E. Knox, J. B. Cross, 
 V. Bakken, C. Adamo, J. Jaramillo, R. Gomperts, R. E. Stratmann, 
 O. Yazyev, A. J. Austin, R. Cammi, C. Pomelli, J. W. Ochterski, 
 R. L. Martin, K. Morokuma, V. G. Zakrzewski, G. A. Voth, 
 P. Salvador, J. J. Dannenberg, S. Dapprich, A. D. Daniels, 
 O. Farkas, J. B. Foresman, J. V. Ortiz, J. Cioslowski, 
 and D. J. Fox, Gaussian, Inc., Wallingford CT, 2013.
 
 ******************************************
 Gaussian 09:  AS64L-G09RevD.01 24-Apr-2013
                19-Jan-2019 
 ******************************************
 %Chk=BLIND00028_mA
 %Mem=1GB
 %NProcShared=48
 Will use up to   48 processors via shared memory.
 ---------------------------------------------
 #T M05/Gen test Massage SCF=(fermi,maxcyc=60)
 ---------------------------------------------
 -------
 M05 opt
 -------
 Symbolic Z-matrix:
 Charge =  0 Multiplicity = 1
 6                    -0.35229  -0.90378  -0.31653 
 6                    -1.37194  -0.01682   0.13008 
 16                    1.16092  -0.41262  -1.06317 
 16                   -1.26472   1.74775   0.03317 
 6                     1.44795   1.12498  -0.228 
 6                     0.4839    1.98016   0.20436 
 6                    -0.76295  -2.20968  -0.13965 
 7                    -2.46789  -0.5513    0.61079 
 16                   -2.36216  -2.21054   0.52919 
 6                     2.83191   1.43021  -0.07778 
 7                     3.97136   1.64662  -0.0001 
 6                     0.82404   3.21832   0.82499 
 7                     1.05476   4.24962   1.30885 
 6                    -0.06663  -3.40096  -0.45772 
 7                     0.48653  -4.3888   -0.72092 
 
                    Distance matrix (angstroms):
                    1          2          3          4          5
     1  C    0.000000
     2  C    1.423315   0.000000
     3  S    1.757418   2.827694   0.000000
     4  S    2.825849   1.770477   3.428253   0.000000
     5  C    2.713774   3.063280   1.773167   2.795470   0.000000
     6  C    3.047557   2.727187   2.791121   1.772288   1.359281
     7  C    1.380327   2.291783   2.789903   3.992857   4.001979
     8  N    2.336642   1.310672   3.998700   2.658358   4.341342
     9  S    2.542129   2.439721   4.263822   4.137445   5.120151
    10  C    3.955208   4.450782   2.675676   4.110426   1.425163
    11  N    5.029770   5.597745   3.642685   5.237162   2.586817
    12  C    4.436049   3.971317   4.106384   2.674416   2.424897
    13  N    5.583831   5.047859   5.232040   3.642352   3.504263
    14  C    2.517432   3.674472   3.286888   5.309014   4.778168
    15  N    3.607292   4.826214   4.047461   6.425950   5.618639
                    6          7          8          9         10
     6  C    0.000000
     7  C    4.384939   0.000000
     8  N    3.909794   2.494036   0.000000
     9  S    5.076167   1.733444   1.664607   0.000000
    10  C    2.428007   5.116215   5.699860   6.371958   0.000000
    11  N    3.509330   6.107712   6.831389   7.434461   1.162408
    12  C    1.426163   5.736923   5.009263   6.301738   2.836178
    13  N    2.587713   6.864751   5.995430   7.349618   3.609722
    14  C    5.449573   1.416040   3.876636   2.767765   5.646781
    15  N    6.435818   2.578302   5.022796   3.797715   6.306769
                   11         12         13         14         15
    11  N    0.000000
    12  C    3.613393   0.000000
    13  N    4.122555   1.162293   0.000000
    14  C    6.480188   6.800997   7.931563   0.000000
    15  N    7.006418   7.769948   8.891861   1.162367   0.000000
 Symmetry turned off by external request.
 Framework group  C1[X(C8N4S3)]
 Deg. of freedom    39
 Rotational constants (GHZ):      0.7722167      0.3388923      0.2463240
   357 basis functions,   759 primitive gaussians,   387 cartesian basis functions
    62 alpha electrons       62 beta electrons
       nuclear repulsion energy      1166.1400392060 Hartrees.
 IMHF & INEx in M05                  599485                  400514
 NAtoms=   15 NActive=   15 NUniq=   15 SFac= 1.00D+00 NAtFMM=   60 NAOKFM=F Big=F
 PrsmSu:  requested number of processors reduced to:  34 ShMem   1 Linda.
 ExpMin= 3.99D-02 ExpMax= 1.11D+05 ExpMxC= 1.07D+03 IAcc=3 IRadAn=         5 AccDes= 0.00D+00
 Harris functional with IExCor= 1009 and IRadAn=       5 diagonalized for initial guess.
 HarFok:  IExCor= 1009 AccDes= 0.00D+00 IRadAn=         5 IDoV= 1 UseB2=F ITyADJ=14
 ICtDFT=  3500011 ScaDFX=  1.000000  1.000000  1.000000  1.000000
 FoFCou: FMM=F IPFlag=           0 FMFlag=      100000 FMFlg1=           0
         NFxFlg=           0 DoJE=T BraDBF=F KetDBF=T FulRan=T
         wScrn=  0.000000 ICntrl=     500 IOpCl=  0 I1Cent=   200000004 NGrid=           0
         NMat0=    1 NMatS0=      1 NMatT0=    0 NMatD0=    1 NMtDS0=    0 NMtDT0=    0
 Symmetry not used in FoFCou.
 SCF Done:  E(RM05) =  -1724.76147507     A.U. after   17 cycles
            NFock= 17  Conv=0.51D-08     -V/T= 2.0061

 **********************************************************************

            Population analysis using the SCF density.

 **********************************************************************

 Alpha  occ. eigenvalues --  -90.56430 -90.53636 -90.53181 -15.08622 -15.05416
 Alpha  occ. eigenvalues --  -15.04969 -15.04934 -10.89945 -10.89827 -10.89736
 Alpha  occ. eigenvalues --  -10.88752 -10.87414 -10.84946 -10.84332 -10.84311
 Alpha  occ. eigenvalues --   -8.57525  -8.55035  -8.54608  -6.40063  -6.39712
 Alpha  occ. eigenvalues --   -6.39401  -6.37597  -6.37283  -6.37162  -6.36852
 Alpha  occ. eigenvalues --   -6.36822  -6.36391  -1.20533  -1.12895  -1.12139
 Alpha  occ. eigenvalues --   -1.11337  -1.07643  -1.03801  -0.98824  -0.97396
 Alpha  occ. eigenvalues --   -0.88002  -0.84555  -0.82236  -0.73687  -0.71296
 Alpha  occ. eigenvalues --   -0.67838  -0.64612  -0.59530  -0.57258  -0.55386
 Alpha  occ. eigenvalues --   -0.53385  -0.52647  -0.52243  -0.51890  -0.50883
 Alpha  occ. eigenvalues --   -0.50387  -0.49356  -0.48215  -0.46805  -0.46075
 Alpha  occ. eigenvalues --   -0.45933  -0.45296  -0.43720  -0.43113  -0.39488
 Alpha  occ. eigenvalues --   -0.37627  -0.33119
 Alpha virt. eigenvalues --   -0.09329  -0.08268  -0.02099  -0.01262  -0.00505
 Alpha virt. eigenvalues --   -0.00361   0.00152   0.01255   0.02017   0.02230
 Alpha virt. eigenvalues --    0.02394   0.02956   0.03188   0.04002   0.04277
 Alpha virt. eigenvalues --    0.04485   0.05428   0.06006   0.06299   0.07067
 Alpha virt. eigenvalues --    0.07271   0.07526   0.07707   0.08289   0.08489
 Alpha virt. eigenvalues --    0.09378   0.10092   0.10390   0.10524   0.10809
 Alpha virt. eigenvalues --    0.11289   0.11394   0.11979   0.12525   0.13230
 Alpha virt. eigenvalues --    0.13492   0.13936   0.14451   0.15075   0.15190
 Alpha virt. eigenvalues --    0.15903   0.16273   0.16676   0.16813   0.17188
 Alpha virt. eigenvalues --    0.17358   0.17839   0.18612   0.19051   0.19563
 Alpha virt. eigenvalues --    0.19856   0.20238   0.20683   0.20943   0.21267
 Alpha virt. eigenvalues --    0.21878   0.22207   0.22584   0.22823   0.23616
 Alpha virt. eigenvalues --    0.23749   0.24116   0.24368   0.24703   0.25259
 Alpha virt. eigenvalues --    0.25692   0.25849   0.26226   0.26621   0.26745
 Alpha virt. eigenvalues --    0.27070   0.28333   0.29194   0.29662   0.30368
 Alpha virt. eigenvalues --    0.30710   0.32420   0.33457   0.34153   0.34714
 Alpha virt. eigenvalues --    0.34950   0.35472   0.36120   0.36936   0.37592
 Alpha virt. eigenvalues --    0.38150   0.39576   0.40725   0.41169   0.42049
 Alpha virt. eigenvalues --    0.42117   0.43485   0.44138   0.45735   0.45986
 Alpha virt. eigenvalues --    0.46961   0.48546   0.49575   0.50229   0.50589
 Alpha virt. eigenvalues --    0.51525   0.51860   0.53524   0.54167   0.54422
 Alpha virt. eigenvalues --    0.54699   0.55468   0.55728   0.55840   0.56450
 Alpha virt. eigenvalues --    0.57767   0.58139   0.58557   0.59217   0.60313
 Alpha virt. eigenvalues --    0.60553   0.61098   0.61588   0.62108   0.62709
 Alpha virt. eigenvalues --    0.63715   0.64715   0.64953   0.66004   0.66554
 Alpha virt. eigenvalues --    0.67686   0.68189   0.68805   0.70109   0.70415
 Alpha virt. eigenvalues --    0.71051   0.72863   0.73472   0.73855   0.75371
 Alpha virt. eigenvalues --    0.75570   0.76457   0.77063   0.77553   0.77843
 Alpha virt. eigenvalues --    0.78246   0.79255   0.79763   0.79879   0.81109
 Alpha virt. eigenvalues --    0.81538   0.82548   0.83275   0.83957   0.84871
 Alpha virt. eigenvalues --    0.85699   0.85941   0.87124   0.87253   0.88405
 Alpha virt. eigenvalues --    0.88459   0.89345   0.89667   0.89828   0.90728
 Alpha virt. eigenvalues --    0.91173   0.91722   0.92829   0.93719   0.94366
 Alpha virt. eigenvalues --    0.95433   0.95565   0.97324   0.98743   0.99313
 Alpha virt. eigenvalues --    0.99847   1.01207   1.02846   1.03577   1.04751
 Alpha virt. eigenvalues --    1.05758   1.06749   1.08039   1.08541   1.09637
 Alpha virt. eigenvalues --    1.10233   1.11401   1.13197   1.13607   1.14403
 Alpha virt. eigenvalues --    1.15325   1.17099   1.18345   1.20284   1.20630
 Alpha virt. eigenvalues --    1.21610   1.22697   1.23934   1.24221   1.26558
 Alpha virt. eigenvalues --    1.27346   1.29756   1.30249   1.32272   1.34126
 Alpha virt. eigenvalues --    1.37311   1.40081   1.40257   1.41566   1.42731
 Alpha virt. eigenvalues --    1.43614   1.45023   1.46461   1.47274   1.49372
 Alpha virt. eigenvalues --    1.49824   1.50475   1.51642   1.51868   1.52333
 Alpha virt. eigenvalues --    1.53716   1.54194   1.55429   1.56137   1.56449
 Alpha virt. eigenvalues --    1.56789   1.58486   1.59727   1.60388   1.60517
 Alpha virt. eigenvalues --    1.62128   1.63282   1.64920   1.66027   1.67547
 Alpha virt. eigenvalues --    1.68612   1.69173   1.70468   1.71323   1.74147
 Alpha virt. eigenvalues --    1.76823   1.77080   1.79019   1.79376   1.81041
 Alpha virt. eigenvalues --    1.82957   1.85918   1.88149   1.89702   1.90608
 Alpha virt. eigenvalues --    1.91367   1.94486   1.95007   1.97395   2.00539
 Alpha virt. eigenvalues --    2.00828   2.05448   2.07035   2.08349   2.08472
 Alpha virt. eigenvalues --    2.10894   2.13936   2.18607   2.20231   2.24591
 Alpha virt. eigenvalues --    2.27646   2.30685   2.37026   2.37401   2.38002
 Alpha virt. eigenvalues --    2.38280   2.39369   2.39930   2.40470   2.42150
 Alpha virt. eigenvalues --    2.42559   2.43757   2.45056   2.51021   2.54996
 Alpha virt. eigenvalues --    2.61157   2.64126   2.68329   2.71899   2.73264
 Alpha virt. eigenvalues --    2.76309   2.78780   2.81840   2.94680   2.99730
 Alpha virt. eigenvalues --    3.01875   3.09942   3.11450   3.15939   3.17849
 Alpha virt. eigenvalues --    3.24293   3.27128   3.35294   3.59307   3.74893
          Condensed to atoms (all electrons):
 Mulliken charges:
               1
     1  C    0.619138
     2  C   -0.108873
     3  S    0.374285
     4  S    0.296947
     5  C    1.038875
     6  C    1.131862
     7  C    0.787622
     8  N   -1.083290
     9  S    0.557373
    10  C   -1.130001
    11  N   -0.167863
    12  C   -1.099451
    13  N   -0.180597
    14  C   -0.853103
    15  N   -0.182923
 Sum of Mulliken charges =  -0.00000
 Mulliken charges with hydrogens summed into heavy atoms:
               1
     1  C    0.619138
     2  C   -0.108873
     3  S    0.374285
     4  S    0.296947
     5  C    1.038875
     6  C    1.131862
     7  C    0.787622
     8  N   -1.083290
     9  S    0.557373
    10  C   -1.130001
    11  N   -0.167863
    12  C   -1.099451
    13  N   -0.180597
    14  C   -0.853103
    15  N   -0.182923
 Electronic spatial extent (au):  <R**2>=           4013.7187
 Charge=             -0.0000 electrons
 Dipole moment (field-independent basis, Debye):
    X=             -4.2457    Y=             -1.7231    Z=             -0.9772  Tot=              4.6851

 Test job not archived.
 1\1\GINC-CHIMERA-NODE61\SP\RM05\Gen\C8N4S3\CONNORNM\19-Jan-2019\0\\#T 
 M05/Gen test Massage SCF=(fermi,maxcyc=60)\\M05 opt\\0,1\C,0,-0.352292
 24,-0.90377567,-0.31652588\C,0,-1.37193665,-0.01681653,0.13007844\S,0,
 1.16091848,-0.41261951,-1.06316876\S,0,-1.26472483,1.74775235,0.033173
 29\C,0,1.44794919,1.12498374,-0.2279971\C,0,0.48389953,1.98015706,0.20
 435795\C,0,-0.76294603,-2.20967854,-0.13965196\N,0,-2.46788701,-0.5512
 969,0.61078998\S,0,-2.36215693,-2.21053756,0.52919056\C,0,2.83191492,1
 .43021135,-0.07778189\N,0,3.97135528,1.64662292,-0.00009836\C,0,0.8240
 4107,3.21832452,0.82499232\N,0,1.05476362,4.24962325,1.30884785\C,0,-0
 .06663163,-3.40095958,-0.45771512\N,0,0.48653327,-4.38879985,-0.720918
 69\\Version=AS64L-G09RevD.01\HF=-1724.7614751\RMSD=5.117e-09\Dipole=-1
 .6703828,-0.6779342,-0.384478\Quadrupole=-0.388478,-9.0815924,9.470070
 4,-1.1922674,-0.7581121,-7.1182896\PG=C01 [X(C8N4S3)]\\@


 Some scientists claim that hydrogen, because it is so
 plentiful, is the basic building block of the universe. 
 I dispute that. I say that stupidity is far more
 abundant than hydrogen, and THAT is the basic building 
 block of the universe.
                   --Frank Zappa
 Job cpu time:       0 days  1 hours 54 minutes 51.5 seconds.
 File lengths (MBytes):  RWF=     58 Int=      0 D2E=      0 Chk=      6 Scr=      1
 Normal termination of Gaussian 09 at Sat Jan 19 11:00:13 2019.
