 Entering Gaussian System, Link 0=/data/szalewicgrp/connornm/opt/Gaussian/g09-M05-par/g09/g09
 AtFile(1): blind-aug.gbs
 Initial command:
 /data/szalewicgrp/connornm/opt/Gaussian/g09-M05-par/g09/l1.exe "/scratch/local/Gau-6328.inp" -scrdir="/scratch/local/"
 Entering Link 1 = /data/szalewicgrp/connornm/opt/Gaussian/g09-M05-par/g09/l1.exe PID=      6329.
  
 Copyright (c) 1988,1990,1992,1993,1995,1998,2003,2009,2013,
            Gaussian, Inc.  All Rights Reserved.
  
 This is part of the Gaussian(R) 09 program.  It is based on
 the Gaussian(R) 03 system (copyright 2003, Gaussian, Inc.),
 the Gaussian(R) 98 system (copyright 1998, Gaussian, Inc.),
 the Gaussian(R) 94 system (copyright 1995, Gaussian, Inc.),
 the Gaussian 92(TM) system (copyright 1992, Gaussian, Inc.),
 the Gaussian 90(TM) system (copyright 1990, Gaussian, Inc.),
 the Gaussian 88(TM) system (copyright 1988, Gaussian, Inc.),
 the Gaussian 86(TM) system (copyright 1986, Carnegie Mellon
 University), and the Gaussian 82(TM) system (copyright 1983,
 Carnegie Mellon University). Gaussian is a federally registered
 trademark of Gaussian, Inc.
  
 This software contains proprietary and confidential information,
 including trade secrets, belonging to Gaussian, Inc.
  
 This software is provided under written license and may be
 used, copied, transmitted, or stored only in accord with that
 written license.
  
 The following legend is applicable only to US Government
 contracts under FAR:
  
                    RESTRICTED RIGHTS LEGEND
  
 Use, reproduction and disclosure by the US Government is
 subject to restrictions as set forth in subparagraphs (a)
 and (c) of the Commercial Computer Software - Restricted
 Rights clause in FAR 52.227-19.
  
 Gaussian, Inc.
 340 Quinnipiac St., Bldg. 40, Wallingford CT 06492
  
  
 ---------------------------------------------------------------
 Warning -- This program may not be used in any manner that
 competes with the business of Gaussian, Inc. or will provide
 assistance to any competitor of Gaussian, Inc.  The licensee
 of this program is prohibited from giving any competitor of
 Gaussian, Inc. access to this program.  By using this program,
 the user acknowledges that Gaussian, Inc. is engaged in the
 business of creating and licensing software in the field of
 computational chemistry and represents and warrants to the
 licensee that it is not a competitor of Gaussian, Inc. and that
 it will not use this program in any manner prohibited above.
 ---------------------------------------------------------------
  

 Cite this work as:
 Gaussian 09, Revision D.01,
 M. J. Frisch, G. W. Trucks, H. B. Schlegel, G. E. Scuseria, 
 M. A. Robb, J. R. Cheeseman, G. Scalmani, V. Barone, B. Mennucci, 
 G. A. Petersson, H. Nakatsuji, M. Caricato, X. Li, H. P. Hratchian, 
 A. F. Izmaylov, J. Bloino, G. Zheng, J. L. Sonnenberg, M. Hada, 
 M. Ehara, K. Toyota, R. Fukuda, J. Hasegawa, M. Ishida, T. Nakajima, 
 Y. Honda, O. Kitao, H. Nakai, T. Vreven, J. A. Montgomery, Jr., 
 J. E. Peralta, F. Ogliaro, M. Bearpark, J. J. Heyd, E. Brothers, 
 K. N. Kudin, V. N. Staroverov, T. Keith, R. Kobayashi, J. Normand, 
 K. Raghavachari, A. Rendell, J. C. Burant, S. S. Iyengar, J. Tomasi, 
 M. Cossi, N. Rega, J. M. Millam, M. Klene, J. E. Knox, J. B. Cross, 
 V. Bakken, C. Adamo, J. Jaramillo, R. Gomperts, R. E. Stratmann, 
 O. Yazyev, A. J. Austin, R. Cammi, C. Pomelli, J. W. Ochterski, 
 R. L. Martin, K. Morokuma, V. G. Zakrzewski, G. A. Voth, 
 P. Salvador, J. J. Dannenberg, S. Dapprich, A. D. Daniels, 
 O. Farkas, J. B. Foresman, J. V. Ortiz, J. Cioslowski, 
 and D. J. Fox, Gaussian, Inc., Wallingford CT, 2013.
 
 ******************************************
 Gaussian 09:  AS64L-G09RevD.01 24-Apr-2013
                19-Jan-2019 
 ******************************************
 %Chk=BLIND01681_mA
 %Mem=1GB
 %NProcShared=48
 Will use up to   48 processors via shared memory.
 ---------------------------------------------
 #T M05/Gen test Massage SCF=(fermi,maxcyc=60)
 ---------------------------------------------
 -------
 M05 opt
 -------
 Symbolic Z-matrix:
 Charge =  0 Multiplicity = 1
 6                    -0.35127   0.84865   0.44442 
 6                    -0.64994   0.76458  -0.94467 
 16                   -0.18669  -0.5241    1.52931 
 16                   -0.87508  -0.75723  -1.82102 
 6                     0.4828   -1.73364   0.41895 
 6                     0.20682  -1.82428  -0.90893 
 6                    -0.28126   2.17371   0.82471 
 7                    -0.79795   1.8907   -1.59875 
 16                   -0.61443   3.17231  -0.55247 
 6                     1.33716  -2.67384   1.06485 
 7                     2.00668  -3.4303    1.63991 
 6                     0.76345  -2.8678   -1.70592 
 7                     1.17069  -3.71721  -2.38678 
 6                    -0.02021   2.70674   2.11036 
 7                     0.18329   3.16158   3.1605 
 
                    Distance matrix (angstroms):
                    1          2          3          4          5
     1  C    0.000000
     2  C    1.423315   0.000000
     3  S    1.757418   2.827694   0.000000
     4  S    2.825849   1.770477   3.428253   0.000000
     5  C    2.713774   3.063280   1.773167   2.795470   0.000000
     6  C    3.047557   2.727187   2.791121   1.772288   1.359281
     7  C    1.380327   2.291783   2.789903   3.992857   4.001979
     8  N    2.336642   1.310672   3.998700   2.658358   4.341342
     9  S    2.542129   2.439721   4.263822   4.137445   5.120151
    10  C    3.955208   4.450782   2.675676   4.110426   1.425163
    11  N    5.029770   5.597745   3.642685   5.237162   2.586817
    12  C    4.436049   3.971317   4.106384   2.674416   2.424897
    13  N    5.583831   5.047859   5.232040   3.642352   3.504263
    14  C    2.517432   3.674472   3.286888   5.309014   4.778168
    15  N    3.607292   4.826214   4.047461   6.425950   5.618639
                    6          7          8          9         10
     6  C    0.000000
     7  C    4.384939   0.000000
     8  N    3.909794   2.494036   0.000000
     9  S    5.076167   1.733444   1.664607   0.000000
    10  C    2.428007   5.116215   5.699860   6.371958   0.000000
    11  N    3.509330   6.107712   6.831389   7.434461   1.162408
    12  C    1.426163   5.736923   5.009263   6.301738   2.836178
    13  N    2.587713   6.864751   5.995430   7.349618   3.609722
    14  C    5.449573   1.416040   3.876636   2.767765   5.646781
    15  N    6.435818   2.578302   5.022796   3.797715   6.306769
                   11         12         13         14         15
    11  N    0.000000
    12  C    3.613393   0.000000
    13  N    4.122555   1.162293   0.000000
    14  C    6.480188   6.800997   7.931563   0.000000
    15  N    7.006418   7.769948   8.891861   1.162367   0.000000
 Symmetry turned off by external request.
 Framework group  C1[X(C8N4S3)]
 Deg. of freedom    39
 Rotational constants (GHZ):      0.7722167      0.3388923      0.2463240
   357 basis functions,   759 primitive gaussians,   387 cartesian basis functions
    62 alpha electrons       62 beta electrons
       nuclear repulsion energy      1166.1400398578 Hartrees.
 IMHF & INEx in M05                  599485                  400514
 NAtoms=   15 NActive=   15 NUniq=   15 SFac= 1.00D+00 NAtFMM=   60 NAOKFM=F Big=F
 PrsmSu:  requested number of processors reduced to:  34 ShMem   1 Linda.
 ExpMin= 3.99D-02 ExpMax= 1.11D+05 ExpMxC= 1.07D+03 IAcc=3 IRadAn=         5 AccDes= 0.00D+00
 Harris functional with IExCor= 1009 and IRadAn=       5 diagonalized for initial guess.
 HarFok:  IExCor= 1009 AccDes= 0.00D+00 IRadAn=         5 IDoV= 1 UseB2=F ITyADJ=14
 ICtDFT=  3500011 ScaDFX=  1.000000  1.000000  1.000000  1.000000
 FoFCou: FMM=F IPFlag=           0 FMFlag=      100000 FMFlg1=           0
         NFxFlg=           0 DoJE=T BraDBF=F KetDBF=T FulRan=T
         wScrn=  0.000000 ICntrl=     500 IOpCl=  0 I1Cent=   200000004 NGrid=           0
         NMat0=    1 NMatS0=      1 NMatT0=    0 NMatD0=    1 NMtDS0=    0 NMtDT0=    0
 Symmetry not used in FoFCou.
 SCF Done:  E(RM05) =  -1724.76145539     A.U. after   17 cycles
            NFock= 17  Conv=0.51D-08     -V/T= 2.0061

 **********************************************************************

            Population analysis using the SCF density.

 **********************************************************************

 Alpha  occ. eigenvalues --  -90.56430 -90.53635 -90.53181 -15.08622 -15.05417
 Alpha  occ. eigenvalues --  -15.04969 -15.04934 -10.89944 -10.89826 -10.89736
 Alpha  occ. eigenvalues --  -10.88752 -10.87414 -10.84947 -10.84331 -10.84311
 Alpha  occ. eigenvalues --   -8.57525  -8.55035  -8.54608  -6.40063  -6.39712
 Alpha  occ. eigenvalues --   -6.39401  -6.37596  -6.37282  -6.37162  -6.36852
 Alpha  occ. eigenvalues --   -6.36821  -6.36391  -1.20533  -1.12895  -1.12139
 Alpha  occ. eigenvalues --   -1.11337  -1.07643  -1.03801  -0.98824  -0.97396
 Alpha  occ. eigenvalues --   -0.88002  -0.84555  -0.82236  -0.73686  -0.71296
 Alpha  occ. eigenvalues --   -0.67838  -0.64612  -0.59530  -0.57258  -0.55386
 Alpha  occ. eigenvalues --   -0.53385  -0.52648  -0.52242  -0.51890  -0.50883
 Alpha  occ. eigenvalues --   -0.50387  -0.49356  -0.48215  -0.46805  -0.46074
 Alpha  occ. eigenvalues --   -0.45933  -0.45296  -0.43720  -0.43113  -0.39488
 Alpha  occ. eigenvalues --   -0.37627  -0.33119
 Alpha virt. eigenvalues --   -0.09329  -0.08269  -0.02098  -0.01263  -0.00505
 Alpha virt. eigenvalues --   -0.00362   0.00153   0.01255   0.02024   0.02227
 Alpha virt. eigenvalues --    0.02396   0.02957   0.03188   0.04004   0.04278
 Alpha virt. eigenvalues --    0.04488   0.05428   0.06008   0.06300   0.07068
 Alpha virt. eigenvalues --    0.07272   0.07525   0.07707   0.08288   0.08497
 Alpha virt. eigenvalues --    0.09375   0.10091   0.10392   0.10526   0.10807
 Alpha virt. eigenvalues --    0.11287   0.11389   0.11975   0.12528   0.13228
 Alpha virt. eigenvalues --    0.13494   0.13933   0.14451   0.15079   0.15190
 Alpha virt. eigenvalues --    0.15900   0.16270   0.16678   0.16811   0.17186
 Alpha virt. eigenvalues --    0.17365   0.17844   0.18620   0.19056   0.19571
 Alpha virt. eigenvalues --    0.19862   0.20244   0.20686   0.20956   0.21270
 Alpha virt. eigenvalues --    0.21881   0.22212   0.22585   0.22820   0.23611
 Alpha virt. eigenvalues --    0.23743   0.24108   0.24376   0.24703   0.25257
 Alpha virt. eigenvalues --    0.25693   0.25856   0.26226   0.26622   0.26750
 Alpha virt. eigenvalues --    0.27062   0.28333   0.29196   0.29662   0.30365
 Alpha virt. eigenvalues --    0.30711   0.32420   0.33458   0.34154   0.34720
 Alpha virt. eigenvalues --    0.34947   0.35470   0.36120   0.36933   0.37596
 Alpha virt. eigenvalues --    0.38151   0.39573   0.40728   0.41171   0.42051
 Alpha virt. eigenvalues --    0.42124   0.43487   0.44136   0.45737   0.45974
 Alpha virt. eigenvalues --    0.46953   0.48541   0.49573   0.50227   0.50590
 Alpha virt. eigenvalues --    0.51527   0.51859   0.53529   0.54164   0.54423
 Alpha virt. eigenvalues --    0.54701   0.55465   0.55738   0.55841   0.56449
 Alpha virt. eigenvalues --    0.57770   0.58133   0.58556   0.59212   0.60311
 Alpha virt. eigenvalues --    0.60551   0.61098   0.61592   0.62105   0.62710
 Alpha virt. eigenvalues --    0.63711   0.64719   0.64956   0.66006   0.66554
 Alpha virt. eigenvalues --    0.67688   0.68188   0.68803   0.70113   0.70413
 Alpha virt. eigenvalues --    0.71047   0.72859   0.73467   0.73855   0.75374
 Alpha virt. eigenvalues --    0.75568   0.76456   0.77062   0.77548   0.77839
 Alpha virt. eigenvalues --    0.78245   0.79252   0.79759   0.79883   0.81105
 Alpha virt. eigenvalues --    0.81535   0.82549   0.83278   0.83958   0.84871
 Alpha virt. eigenvalues --    0.85699   0.85940   0.87125   0.87249   0.88401
 Alpha virt. eigenvalues --    0.88458   0.89346   0.89666   0.89829   0.90732
 Alpha virt. eigenvalues --    0.91169   0.91725   0.92830   0.93721   0.94367
 Alpha virt. eigenvalues --    0.95432   0.95565   0.97325   0.98745   0.99311
 Alpha virt. eigenvalues --    0.99848   1.01205   1.02849   1.03576   1.04753
 Alpha virt. eigenvalues --    1.05759   1.06745   1.08040   1.08541   1.09634
 Alpha virt. eigenvalues --    1.10231   1.11402   1.13199   1.13607   1.14404
 Alpha virt. eigenvalues --    1.15323   1.17103   1.18346   1.20286   1.20631
 Alpha virt. eigenvalues --    1.21611   1.22704   1.23937   1.24222   1.26558
 Alpha virt. eigenvalues --    1.27345   1.29759   1.30249   1.32274   1.34126
 Alpha virt. eigenvalues --    1.37312   1.40084   1.40257   1.41564   1.42729
 Alpha virt. eigenvalues --    1.43615   1.45023   1.46464   1.47273   1.49371
 Alpha virt. eigenvalues --    1.49820   1.50474   1.51640   1.51867   1.52334
 Alpha virt. eigenvalues --    1.53717   1.54192   1.55430   1.56138   1.56448
 Alpha virt. eigenvalues --    1.56792   1.58487   1.59728   1.60390   1.60515
 Alpha virt. eigenvalues --    1.62130   1.63283   1.64921   1.66029   1.67545
 Alpha virt. eigenvalues --    1.68616   1.69170   1.70470   1.71324   1.74156
 Alpha virt. eigenvalues --    1.76825   1.77080   1.79015   1.79378   1.81044
 Alpha virt. eigenvalues --    1.82959   1.85921   1.88151   1.89702   1.90608
 Alpha virt. eigenvalues --    1.91369   1.94485   1.95006   1.97392   2.00541
 Alpha virt. eigenvalues --    2.00829   2.05449   2.07037   2.08352   2.08470
 Alpha virt. eigenvalues --    2.10897   2.13938   2.18608   2.20236   2.24594
 Alpha virt. eigenvalues --    2.27645   2.30685   2.37026   2.37401   2.38001
 Alpha virt. eigenvalues --    2.38279   2.39369   2.39931   2.40471   2.42151
 Alpha virt. eigenvalues --    2.42561   2.43754   2.45057   2.51016   2.54995
 Alpha virt. eigenvalues --    2.61155   2.64125   2.68330   2.71900   2.73264
 Alpha virt. eigenvalues --    2.76309   2.78780   2.81839   2.94680   2.99731
 Alpha virt. eigenvalues --    3.01876   3.09944   3.11451   3.15938   3.17850
 Alpha virt. eigenvalues --    3.24297   3.27129   3.35295   3.59313   3.74893
          Condensed to atoms (all electrons):
 Mulliken charges:
               1
     1  C    0.619267
     2  C   -0.109221
     3  S    0.374833
     4  S    0.297577
     5  C    1.039664
     6  C    1.131787
     7  C    0.787380
     8  N   -1.083530
     9  S    0.557067
    10  C   -1.129501
    11  N   -0.167998
    12  C   -1.100748
    13  N   -0.180467
    14  C   -0.853052
    15  N   -0.183056
 Sum of Mulliken charges =  -0.00000
 Mulliken charges with hydrogens summed into heavy atoms:
               1
     1  C    0.619267
     2  C   -0.109221
     3  S    0.374833
     4  S    0.297577
     5  C    1.039664
     6  C    1.131787
     7  C    0.787380
     8  N   -1.083530
     9  S    0.557067
    10  C   -1.129501
    11  N   -0.167998
    12  C   -1.100748
    13  N   -0.180467
    14  C   -0.853052
    15  N   -0.183056
 Electronic spatial extent (au):  <R**2>=           4013.7187
 Charge=             -0.0000 electrons
 Dipole moment (field-independent basis, Debye):
    X=             -2.9555    Y=              3.4056    Z=             -1.2726  Tot=              4.6854

 Test job not archived.
 1\1\GINC-CHIMERA-NODE62\SP\RM05\Gen\C8N4S3\CONNORNM\19-Jan-2019\0\\#T 
 M05/Gen test Massage SCF=(fermi,maxcyc=60)\\M05 opt\\0,1\C,0,-0.351273
 12,0.84865232,0.44441572\C,0,-0.64994441,0.76458315,-0.94466833\S,0,-0
 .18669437,-0.52409662,1.5293078\S,0,-0.87507548,-0.75722875,-1.8210203
 6\C,0,0.48279507,-1.73364371,0.41894669\C,0,0.20681916,-1.82428304,-0.
 90893352\C,0,-0.28125964,2.17370975,0.82471054\N,0,-0.7979516,1.890697
 71,-1.59874775\S,0,-0.61442997,3.17231147,-0.55246726\C,0,1.33716206,-
 2.6738358,1.06484572\N,0,2.00668444,-3.43029861,1.63990817\C,0,0.76344
 823,-2.86779612,-1.70591938\N,0,1.17068647,-3.7172119,-2.38678352\C,0,
 -0.02021064,2.7067372,2.11036353\N,0,0.18329343,3.1615848,3.16050431\\
 Version=AS64L-G09RevD.01\HF=-1724.7614554\RMSD=5.124e-09\Dipole=-1.162
 766,1.3398797,-0.5006774\Quadrupole=7.0231705,-3.717434,-3.3057365,6.7
 957016,-1.5808955,-7.2858695\PG=C01 [X(C8N4S3)]\\@


 A CHEMICAL PHYSICIST MAKES PRECISE MEASUREMENTS ON IMPURE COMPOUNDS.
 A THEORETICAL PHYSICAL CHEMIST MAKES IMPRECISE
     MEASUREMENTS ON PURE COMPOUNDS.
 AN EXPERIMENTAL PHYSICAL CHEMIST MAKES IMPRECISE
     MEASUREMENTS ON IMPURE COMPOUNDS.
 Job cpu time:       0 days  2 hours  5 minutes 14.6 seconds.
 File lengths (MBytes):  RWF=     58 Int=      0 D2E=      0 Chk=      6 Scr=      1
 Normal termination of Gaussian 09 at Sat Jan 19 11:10:28 2019.
