 Entering Gaussian System, Link 0=/data/szalewicgrp/connornm/opt/Gaussian/g09-M05-par/g09/g09
 AtFile(1): blind-aug.gbs
 Initial command:
 /data/szalewicgrp/connornm/opt/Gaussian/g09-M05-par/g09/l1.exe "/scratch/local/Gau-16806.inp" -scrdir="/scratch/local/"
 Entering Link 1 = /data/szalewicgrp/connornm/opt/Gaussian/g09-M05-par/g09/l1.exe PID=     16807.
  
 Copyright (c) 1988,1990,1992,1993,1995,1998,2003,2009,2013,
            Gaussian, Inc.  All Rights Reserved.
  
 This is part of the Gaussian(R) 09 program.  It is based on
 the Gaussian(R) 03 system (copyright 2003, Gaussian, Inc.),
 the Gaussian(R) 98 system (copyright 1998, Gaussian, Inc.),
 the Gaussian(R) 94 system (copyright 1995, Gaussian, Inc.),
 the Gaussian 92(TM) system (copyright 1992, Gaussian, Inc.),
 the Gaussian 90(TM) system (copyright 1990, Gaussian, Inc.),
 the Gaussian 88(TM) system (copyright 1988, Gaussian, Inc.),
 the Gaussian 86(TM) system (copyright 1986, Carnegie Mellon
 University), and the Gaussian 82(TM) system (copyright 1983,
 Carnegie Mellon University). Gaussian is a federally registered
 trademark of Gaussian, Inc.
  
 This software contains proprietary and confidential information,
 including trade secrets, belonging to Gaussian, Inc.
  
 This software is provided under written license and may be
 used, copied, transmitted, or stored only in accord with that
 written license.
  
 The following legend is applicable only to US Government
 contracts under FAR:
  
                    RESTRICTED RIGHTS LEGEND
  
 Use, reproduction and disclosure by the US Government is
 subject to restrictions as set forth in subparagraphs (a)
 and (c) of the Commercial Computer Software - Restricted
 Rights clause in FAR 52.227-19.
  
 Gaussian, Inc.
 340 Quinnipiac St., Bldg. 40, Wallingford CT 06492
  
  
 ---------------------------------------------------------------
 Warning -- This program may not be used in any manner that
 competes with the business of Gaussian, Inc. or will provide
 assistance to any competitor of Gaussian, Inc.  The licensee
 of this program is prohibited from giving any competitor of
 Gaussian, Inc. access to this program.  By using this program,
 the user acknowledges that Gaussian, Inc. is engaged in the
 business of creating and licensing software in the field of
 computational chemistry and represents and warrants to the
 licensee that it is not a competitor of Gaussian, Inc. and that
 it will not use this program in any manner prohibited above.
 ---------------------------------------------------------------
  

 Cite this work as:
 Gaussian 09, Revision D.01,
 M. J. Frisch, G. W. Trucks, H. B. Schlegel, G. E. Scuseria, 
 M. A. Robb, J. R. Cheeseman, G. Scalmani, V. Barone, B. Mennucci, 
 G. A. Petersson, H. Nakatsuji, M. Caricato, X. Li, H. P. Hratchian, 
 A. F. Izmaylov, J. Bloino, G. Zheng, J. L. Sonnenberg, M. Hada, 
 M. Ehara, K. Toyota, R. Fukuda, J. Hasegawa, M. Ishida, T. Nakajima, 
 Y. Honda, O. Kitao, H. Nakai, T. Vreven, J. A. Montgomery, Jr., 
 J. E. Peralta, F. Ogliaro, M. Bearpark, J. J. Heyd, E. Brothers, 
 K. N. Kudin, V. N. Staroverov, T. Keith, R. Kobayashi, J. Normand, 
 K. Raghavachari, A. Rendell, J. C. Burant, S. S. Iyengar, J. Tomasi, 
 M. Cossi, N. Rega, J. M. Millam, M. Klene, J. E. Knox, J. B. Cross, 
 V. Bakken, C. Adamo, J. Jaramillo, R. Gomperts, R. E. Stratmann, 
 O. Yazyev, A. J. Austin, R. Cammi, C. Pomelli, J. W. Ochterski, 
 R. L. Martin, K. Morokuma, V. G. Zakrzewski, G. A. Voth, 
 P. Salvador, J. J. Dannenberg, S. Dapprich, A. D. Daniels, 
 O. Farkas, J. B. Foresman, J. V. Ortiz, J. Cioslowski, 
 and D. J. Fox, Gaussian, Inc., Wallingford CT, 2013.
 
 ******************************************
 Gaussian 09:  AS64L-G09RevD.01 24-Apr-2013
                19-Jan-2019 
 ******************************************
 %Chk=BLIND00291_mB
 %Mem=1GB
 %NProcShared=48
 Will use up to   48 processors via shared memory.
 ---------------------------------------------
 #T M05/Gen test Massage SCF=(fermi,maxcyc=60)
 ---------------------------------------------
 -------
 M05 opt
 -------
 Symbolic Z-matrix:
 Charge =  0 Multiplicity = 1
 6                    -0.18099  -0.76027   5.90682 
 6                    -1.27218   0.14195   6.05212 
 16                    1.51546  -0.3319    6.07136 
 16                   -1.09527   1.85602   6.45867 
 6                     1.40836   0.94115   7.30099 
 6                     0.37226   1.8081    7.45117 
 6                    -0.6537   -2.00617   5.54684 
 7                    -2.47635  -0.32865   5.83679 
 16                   -2.37927  -1.93186   5.39951 
 6                     2.56546   1.01752   8.12946 
 7                     3.53901   1.05634   8.76342 
 6                     0.4066    2.82944   8.44596 
 7                     0.40434   3.69425   9.2225 
 6                     0.08542  -3.18638   5.28996 
 7                     0.67667  -4.16186   5.06649 
 
                    Distance matrix (angstroms):
                    1          2          3          4          5
     1  C    0.000000
     2  C    1.423315   0.000000
     3  S    1.757418   2.827694   0.000000
     4  S    2.825849   1.770477   3.428253   0.000000
     5  C    2.713774   3.063280   1.773167   2.795470   0.000000
     6  C    3.047557   2.727187   2.791121   1.772288   1.359281
     7  C    1.380327   2.291783   2.789903   3.992857   4.001979
     8  N    2.336642   1.310672   3.998700   2.658358   4.341342
     9  S    2.542129   2.439721   4.263822   4.137445   5.120151
    10  C    3.955208   4.450782   2.675676   4.110426   1.425163
    11  N    5.029770   5.597745   3.642685   5.237162   2.586817
    12  C    4.436049   3.971317   4.106384   2.674416   2.424897
    13  N    5.583831   5.047859   5.232040   3.642352   3.504263
    14  C    2.517432   3.674472   3.286888   5.309014   4.778168
    15  N    3.607292   4.826214   4.047461   6.425950   5.618639
                    6          7          8          9         10
     6  C    0.000000
     7  C    4.384939   0.000000
     8  N    3.909794   2.494036   0.000000
     9  S    5.076167   1.733444   1.664607   0.000000
    10  C    2.428007   5.116215   5.699860   6.371958   0.000000
    11  N    3.509330   6.107712   6.831389   7.434461   1.162408
    12  C    1.426163   5.736923   5.009263   6.301738   2.836178
    13  N    2.587713   6.864751   5.995430   7.349618   3.609722
    14  C    5.449573   1.416040   3.876636   2.767765   5.646781
    15  N    6.435818   2.578302   5.022796   3.797715   6.306769
                   11         12         13         14         15
    11  N    0.000000
    12  C    3.613393   0.000000
    13  N    4.122555   1.162293   0.000000
    14  C    6.480188   6.800997   7.931563   0.000000
    15  N    7.006418   7.769948   8.891861   1.162367   0.000000
 Symmetry turned off by external request.
 Framework group  C1[X(C8N4S3)]
 Deg. of freedom    39
 Rotational constants (GHZ):      0.7722167      0.3388923      0.2463240
   357 basis functions,   759 primitive gaussians,   387 cartesian basis functions
    62 alpha electrons       62 beta electrons
       nuclear repulsion energy      1166.1400402129 Hartrees.
 IMHF & INEx in M05                  599485                  400514
 NAtoms=   15 NActive=   15 NUniq=   15 SFac= 1.00D+00 NAtFMM=   60 NAOKFM=F Big=F
 PrsmSu:  requested number of processors reduced to:  34 ShMem   1 Linda.
 ExpMin= 3.99D-02 ExpMax= 1.11D+05 ExpMxC= 1.07D+03 IAcc=3 IRadAn=         5 AccDes= 0.00D+00
 Harris functional with IExCor= 1009 and IRadAn=       5 diagonalized for initial guess.
 HarFok:  IExCor= 1009 AccDes= 0.00D+00 IRadAn=         5 IDoV= 1 UseB2=F ITyADJ=14
 ICtDFT=  3500011 ScaDFX=  1.000000  1.000000  1.000000  1.000000
 FoFCou: FMM=F IPFlag=           0 FMFlag=      100000 FMFlg1=           0
         NFxFlg=           0 DoJE=T BraDBF=F KetDBF=T FulRan=T
         wScrn=  0.000000 ICntrl=     500 IOpCl=  0 I1Cent=   200000004 NGrid=           0
         NMat0=    1 NMatS0=      1 NMatT0=    0 NMatD0=    1 NMtDS0=    0 NMtDT0=    0
 Symmetry not used in FoFCou.
 SCF Done:  E(RM05) =  -1724.76146238     A.U. after   17 cycles
            NFock= 17  Conv=0.52D-08     -V/T= 2.0061

 **********************************************************************

            Population analysis using the SCF density.

 **********************************************************************

 Alpha  occ. eigenvalues --  -90.56430 -90.53636 -90.53181 -15.08622 -15.05417
 Alpha  occ. eigenvalues --  -15.04969 -15.04934 -10.89944 -10.89826 -10.89735
 Alpha  occ. eigenvalues --  -10.88752 -10.87414 -10.84946 -10.84331 -10.84311
 Alpha  occ. eigenvalues --   -8.57525  -8.55036  -8.54609  -6.40063  -6.39712
 Alpha  occ. eigenvalues --   -6.39401  -6.37597  -6.37283  -6.37162  -6.36852
 Alpha  occ. eigenvalues --   -6.36822  -6.36392  -1.20533  -1.12895  -1.12139
 Alpha  occ. eigenvalues --   -1.11337  -1.07643  -1.03801  -0.98824  -0.97396
 Alpha  occ. eigenvalues --   -0.88002  -0.84555  -0.82236  -0.73686  -0.71296
 Alpha  occ. eigenvalues --   -0.67838  -0.64612  -0.59530  -0.57258  -0.55386
 Alpha  occ. eigenvalues --   -0.53385  -0.52648  -0.52243  -0.51890  -0.50883
 Alpha  occ. eigenvalues --   -0.50387  -0.49356  -0.48215  -0.46805  -0.46074
 Alpha  occ. eigenvalues --   -0.45933  -0.45296  -0.43720  -0.43113  -0.39488
 Alpha  occ. eigenvalues --   -0.37628  -0.33119
 Alpha virt. eigenvalues --   -0.09329  -0.08268  -0.02099  -0.01264  -0.00502
 Alpha virt. eigenvalues --   -0.00362   0.00153   0.01254   0.02021   0.02229
 Alpha virt. eigenvalues --    0.02394   0.02957   0.03188   0.04003   0.04275
 Alpha virt. eigenvalues --    0.04487   0.05427   0.06006   0.06300   0.07067
 Alpha virt. eigenvalues --    0.07271   0.07525   0.07707   0.08291   0.08492
 Alpha virt. eigenvalues --    0.09375   0.10093   0.10393   0.10522   0.10813
 Alpha virt. eigenvalues --    0.11287   0.11393   0.11979   0.12526   0.13228
 Alpha virt. eigenvalues --    0.13489   0.13938   0.14453   0.15074   0.15191
 Alpha virt. eigenvalues --    0.15899   0.16272   0.16679   0.16814   0.17188
 Alpha virt. eigenvalues --    0.17358   0.17840   0.18612   0.19054   0.19564
 Alpha virt. eigenvalues --    0.19859   0.20240   0.20682   0.20941   0.21266
 Alpha virt. eigenvalues --    0.21880   0.22206   0.22581   0.22821   0.23610
 Alpha virt. eigenvalues --    0.23748   0.24112   0.24370   0.24704   0.25258
 Alpha virt. eigenvalues --    0.25696   0.25850   0.26230   0.26621   0.26748
 Alpha virt. eigenvalues --    0.27071   0.28334   0.29195   0.29661   0.30366
 Alpha virt. eigenvalues --    0.30713   0.32419   0.33454   0.34154   0.34715
 Alpha virt. eigenvalues --    0.34947   0.35470   0.36122   0.36936   0.37594
 Alpha virt. eigenvalues --    0.38153   0.39578   0.40728   0.41169   0.42050
 Alpha virt. eigenvalues --    0.42121   0.43485   0.44134   0.45735   0.45983
 Alpha virt. eigenvalues --    0.46962   0.48550   0.49573   0.50235   0.50597
 Alpha virt. eigenvalues --    0.51527   0.51858   0.53530   0.54168   0.54424
 Alpha virt. eigenvalues --    0.54702   0.55467   0.55737   0.55840   0.56453
 Alpha virt. eigenvalues --    0.57772   0.58140   0.58556   0.59218   0.60311
 Alpha virt. eigenvalues --    0.60553   0.61101   0.61588   0.62102   0.62709
 Alpha virt. eigenvalues --    0.63714   0.64717   0.64952   0.66004   0.66557
 Alpha virt. eigenvalues --    0.67685   0.68191   0.68807   0.70110   0.70416
 Alpha virt. eigenvalues --    0.71050   0.72861   0.73466   0.73852   0.75369
 Alpha virt. eigenvalues --    0.75567   0.76457   0.77063   0.77551   0.77841
 Alpha virt. eigenvalues --    0.78247   0.79254   0.79761   0.79881   0.81107
 Alpha virt. eigenvalues --    0.81536   0.82545   0.83275   0.83959   0.84871
 Alpha virt. eigenvalues --    0.85698   0.85940   0.87125   0.87253   0.88401
 Alpha virt. eigenvalues --    0.88459   0.89344   0.89665   0.89831   0.90733
 Alpha virt. eigenvalues --    0.91171   0.91721   0.92829   0.93720   0.94369
 Alpha virt. eigenvalues --    0.95433   0.95562   0.97327   0.98744   0.99316
 Alpha virt. eigenvalues --    0.99850   1.01206   1.02847   1.03576   1.04755
 Alpha virt. eigenvalues --    1.05757   1.06744   1.08037   1.08542   1.09637
 Alpha virt. eigenvalues --    1.10235   1.11402   1.13196   1.13608   1.14403
 Alpha virt. eigenvalues --    1.15323   1.17102   1.18346   1.20284   1.20630
 Alpha virt. eigenvalues --    1.21608   1.22701   1.23933   1.24219   1.26559
 Alpha virt. eigenvalues --    1.27345   1.29758   1.30252   1.32269   1.34126
 Alpha virt. eigenvalues --    1.37312   1.40084   1.40259   1.41565   1.42728
 Alpha virt. eigenvalues --    1.43616   1.45024   1.46462   1.47273   1.49370
 Alpha virt. eigenvalues --    1.49823   1.50473   1.51643   1.51867   1.52334
 Alpha virt. eigenvalues --    1.53717   1.54193   1.55432   1.56139   1.56447
 Alpha virt. eigenvalues --    1.56790   1.58490   1.59725   1.60389   1.60517
 Alpha virt. eigenvalues --    1.62129   1.63279   1.64919   1.66028   1.67544
 Alpha virt. eigenvalues --    1.68614   1.69174   1.70469   1.71323   1.74153
 Alpha virt. eigenvalues --    1.76827   1.77077   1.79017   1.79379   1.81043
 Alpha virt. eigenvalues --    1.82960   1.85921   1.88154   1.89700   1.90608
 Alpha virt. eigenvalues --    1.91370   1.94487   1.95006   1.97393   2.00538
 Alpha virt. eigenvalues --    2.00828   2.05450   2.07036   2.08350   2.08472
 Alpha virt. eigenvalues --    2.10898   2.13937   2.18607   2.20233   2.24595
 Alpha virt. eigenvalues --    2.27647   2.30685   2.37026   2.37401   2.38001
 Alpha virt. eigenvalues --    2.38279   2.39369   2.39931   2.40471   2.42149
 Alpha virt. eigenvalues --    2.42560   2.43757   2.45055   2.51016   2.54995
 Alpha virt. eigenvalues --    2.61160   2.64123   2.68330   2.71900   2.73263
 Alpha virt. eigenvalues --    2.76309   2.78780   2.81841   2.94680   2.99731
 Alpha virt. eigenvalues --    3.01876   3.09942   3.11450   3.15938   3.17849
 Alpha virt. eigenvalues --    3.24295   3.27128   3.35294   3.59305   3.74890
          Condensed to atoms (all electrons):
 Mulliken charges:
               1
     1  C    0.619514
     2  C   -0.108304
     3  S    0.374979
     4  S    0.296393
     5  C    1.040391
     6  C    1.131160
     7  C    0.787133
     8  N   -1.083630
     9  S    0.557401
    10  C   -1.129790
    11  N   -0.167894
    12  C   -1.100940
    13  N   -0.180412
    14  C   -0.852926
    15  N   -0.183074
 Sum of Mulliken charges =  -0.00000
 Mulliken charges with hydrogens summed into heavy atoms:
               1
     1  C    0.619514
     2  C   -0.108304
     3  S    0.374979
     4  S    0.296393
     5  C    1.040391
     6  C    1.131160
     7  C    0.787133
     8  N   -1.083630
     9  S    0.557401
    10  C   -1.129790
    11  N   -0.167894
    12  C   -1.100940
    13  N   -0.180412
    14  C   -0.852926
    15  N   -0.183074
 Electronic spatial extent (au):  <R**2>=          23119.1619
 Charge=             -0.0000 electrons
 Dipole moment (field-independent basis, Debye):
    X=             -3.3236    Y=             -0.8875    Z=             -3.1808  Tot=              4.6852

 Test job not archived.
 1\1\GINC-CHIMERA-NODE37\SP\RM05\Gen\C8N4S3\CONNORNM\19-Jan-2019\0\\#T 
 M05/Gen test Massage SCF=(fermi,maxcyc=60)\\M05 opt\\0,1\C,0,-0.180991
 08,-0.76027419,5.90682479\C,0,-1.27218279,0.14195377,6.05212451\S,0,1.
 51545887,-0.33190074,6.0713556\S,0,-1.09527336,1.85601628,6.45867229\C
 ,0,1.40836023,0.94115134,7.30098577\C,0,0.37226321,1.80809596,7.451165
 79\C,0,-0.65370305,-2.006171,5.54684181\N,0,-2.47635366,-0.32864579,5.
 83679081\S,0,-2.37927489,-1.93185549,5.3995137\C,0,2.5654621,1.0175188
 ,8.12946204\N,0,3.53900546,1.05634153,8.7634172\C,0,0.4066029,2.829441
 27,8.44596047\N,0,0.4043423,3.6942544,9.22250363\C,0,0.08541596,-3.186
 37554,5.28995901\N,0,0.67666885,-4.1618646,5.06649304\\Version=AS64L-G
 09RevD.01\HF=-1724.7614624\RMSD=5.154e-09\Dipole=-1.3076026,-0.3491622
 ,-1.2514175\Quadrupole=12.8555167,5.4342754,-18.2897921,3.1507529,-20.
 2103523,-14.0684916\PG=C01 [X(C8N4S3)]\\@


 SI MONUMENTUM REQUIRIS, CIRCUMSPICE
     -- FROM SIR CHRISTOPHER WREN'S TOMBSTONE
 Job cpu time:       0 days  2 hours  1 minutes 24.1 seconds.
 File lengths (MBytes):  RWF=     58 Int=      0 D2E=      0 Chk=      6 Scr=      1
 Normal termination of Gaussian 09 at Sat Jan 19 11:07:12 2019.
