 Entering Gaussian System, Link 0=/data/szalewicgrp/connornm/opt/Gaussian/g09-M05-par/g09/g09
 AtFile(1): blind-aug.gbs
 Initial command:
 /data/szalewicgrp/connornm/opt/Gaussian/g09-M05-par/g09/l1.exe "/scratch/local/Gau-43833.inp" -scrdir="/scratch/local/"
 Entering Link 1 = /data/szalewicgrp/connornm/opt/Gaussian/g09-M05-par/g09/l1.exe PID=     43834.
  
 Copyright (c) 1988,1990,1992,1993,1995,1998,2003,2009,2013,
            Gaussian, Inc.  All Rights Reserved.
  
 This is part of the Gaussian(R) 09 program.  It is based on
 the Gaussian(R) 03 system (copyright 2003, Gaussian, Inc.),
 the Gaussian(R) 98 system (copyright 1998, Gaussian, Inc.),
 the Gaussian(R) 94 system (copyright 1995, Gaussian, Inc.),
 the Gaussian 92(TM) system (copyright 1992, Gaussian, Inc.),
 the Gaussian 90(TM) system (copyright 1990, Gaussian, Inc.),
 the Gaussian 88(TM) system (copyright 1988, Gaussian, Inc.),
 the Gaussian 86(TM) system (copyright 1986, Carnegie Mellon
 University), and the Gaussian 82(TM) system (copyright 1983,
 Carnegie Mellon University). Gaussian is a federally registered
 trademark of Gaussian, Inc.
  
 This software contains proprietary and confidential information,
 including trade secrets, belonging to Gaussian, Inc.
  
 This software is provided under written license and may be
 used, copied, transmitted, or stored only in accord with that
 written license.
  
 The following legend is applicable only to US Government
 contracts under FAR:
  
                    RESTRICTED RIGHTS LEGEND
  
 Use, reproduction and disclosure by the US Government is
 subject to restrictions as set forth in subparagraphs (a)
 and (c) of the Commercial Computer Software - Restricted
 Rights clause in FAR 52.227-19.
  
 Gaussian, Inc.
 340 Quinnipiac St., Bldg. 40, Wallingford CT 06492
  
  
 ---------------------------------------------------------------
 Warning -- This program may not be used in any manner that
 competes with the business of Gaussian, Inc. or will provide
 assistance to any competitor of Gaussian, Inc.  The licensee
 of this program is prohibited from giving any competitor of
 Gaussian, Inc. access to this program.  By using this program,
 the user acknowledges that Gaussian, Inc. is engaged in the
 business of creating and licensing software in the field of
 computational chemistry and represents and warrants to the
 licensee that it is not a competitor of Gaussian, Inc. and that
 it will not use this program in any manner prohibited above.
 ---------------------------------------------------------------
  

 Cite this work as:
 Gaussian 09, Revision D.01,
 M. J. Frisch, G. W. Trucks, H. B. Schlegel, G. E. Scuseria, 
 M. A. Robb, J. R. Cheeseman, G. Scalmani, V. Barone, B. Mennucci, 
 G. A. Petersson, H. Nakatsuji, M. Caricato, X. Li, H. P. Hratchian, 
 A. F. Izmaylov, J. Bloino, G. Zheng, J. L. Sonnenberg, M. Hada, 
 M. Ehara, K. Toyota, R. Fukuda, J. Hasegawa, M. Ishida, T. Nakajima, 
 Y. Honda, O. Kitao, H. Nakai, T. Vreven, J. A. Montgomery, Jr., 
 J. E. Peralta, F. Ogliaro, M. Bearpark, J. J. Heyd, E. Brothers, 
 K. N. Kudin, V. N. Staroverov, T. Keith, R. Kobayashi, J. Normand, 
 K. Raghavachari, A. Rendell, J. C. Burant, S. S. Iyengar, J. Tomasi, 
 M. Cossi, N. Rega, J. M. Millam, M. Klene, J. E. Knox, J. B. Cross, 
 V. Bakken, C. Adamo, J. Jaramillo, R. Gomperts, R. E. Stratmann, 
 O. Yazyev, A. J. Austin, R. Cammi, C. Pomelli, J. W. Ochterski, 
 R. L. Martin, K. Morokuma, V. G. Zakrzewski, G. A. Voth, 
 P. Salvador, J. J. Dannenberg, S. Dapprich, A. D. Daniels, 
 O. Farkas, J. B. Foresman, J. V. Ortiz, J. Cioslowski, 
 and D. J. Fox, Gaussian, Inc., Wallingford CT, 2013.
 
 ******************************************
 Gaussian 09:  AS64L-G09RevD.01 24-Apr-2013
                19-Jan-2019 
 ******************************************
 %Chk=BLIND01454_mB
 %Mem=1GB
 %NProcShared=48
 Will use up to   48 processors via shared memory.
 ---------------------------------------------
 #T M05/Gen test Massage SCF=(fermi,maxcyc=60)
 ---------------------------------------------
 -------
 M05 opt
 -------
 Symbolic Z-matrix:
 Charge =  0 Multiplicity = 1
 6                     0.01463  -0.90361   11.61936 
 6                    -0.24058   0.19405   12.48876 
 16                   -0.44289  -0.97997   9.92427 
 16                   -1.04188   1.69127   11.98791 
 6                    -0.29252   0.72817   9.47285 
 6                    -0.53205   1.78523   10.29314 
 6                     0.61181  -1.92718   12.32717 
 7                     0.11421   0.06425   13.7438 
 16                    0.77213  -1.44573   13.98468 
 6                     0.07253   0.91613   8.10811 
 7                     0.34793   1.01893   6.98349 
 6                    -0.42733   3.12495   9.8155 
 7                    -0.38263   4.23126   9.46194 
 6                     1.02212  -3.19836   11.85717 
 7                     1.35645  -4.24958   11.49076 
 
                    Distance matrix (angstroms):
                    1          2          3          4          5
     1  C    0.000000
     2  C    1.423315   0.000000
     3  S    1.757418   2.827694   0.000000
     4  S    2.825849   1.770477   3.428253   0.000000
     5  C    2.713774   3.063280   1.773167   2.795470   0.000000
     6  C    3.047557   2.727187   2.791121   1.772288   1.359281
     7  C    1.380327   2.291783   2.789903   3.992857   4.001979
     8  N    2.336642   1.310672   3.998700   2.658358   4.341342
     9  S    2.542129   2.439721   4.263822   4.137445   5.120151
    10  C    3.955208   4.450782   2.675676   4.110426   1.425163
    11  N    5.029770   5.597745   3.642685   5.237162   2.586817
    12  C    4.436049   3.971317   4.106384   2.674416   2.424897
    13  N    5.583831   5.047859   5.232040   3.642352   3.504263
    14  C    2.517432   3.674472   3.286888   5.309014   4.778168
    15  N    3.607292   4.826214   4.047461   6.425950   5.618639
                    6          7          8          9         10
     6  C    0.000000
     7  C    4.384939   0.000000
     8  N    3.909794   2.494036   0.000000
     9  S    5.076167   1.733444   1.664607   0.000000
    10  C    2.428007   5.116215   5.699860   6.371958   0.000000
    11  N    3.509330   6.107712   6.831389   7.434461   1.162408
    12  C    1.426163   5.736923   5.009263   6.301738   2.836178
    13  N    2.587713   6.864751   5.995430   7.349618   3.609722
    14  C    5.449573   1.416040   3.876636   2.767765   5.646781
    15  N    6.435818   2.578302   5.022796   3.797715   6.306769
                   11         12         13         14         15
    11  N    0.000000
    12  C    3.613393   0.000000
    13  N    4.122555   1.162293   0.000000
    14  C    6.480188   6.800997   7.931563   0.000000
    15  N    7.006418   7.769948   8.891861   1.162367   0.000000
 Symmetry turned off by external request.
 Framework group  C1[X(C8N4S3)]
 Deg. of freedom    39
 Rotational constants (GHZ):      0.7722167      0.3388923      0.2463240
   357 basis functions,   759 primitive gaussians,   387 cartesian basis functions
    62 alpha electrons       62 beta electrons
       nuclear repulsion energy      1166.1400395492 Hartrees.
 IMHF & INEx in M05                  599485                  400514
 NAtoms=   15 NActive=   15 NUniq=   15 SFac= 1.00D+00 NAtFMM=   60 NAOKFM=F Big=F
 PrsmSu:  requested number of processors reduced to:  34 ShMem   1 Linda.
 ExpMin= 3.99D-02 ExpMax= 1.11D+05 ExpMxC= 1.07D+03 IAcc=3 IRadAn=         5 AccDes= 0.00D+00
 Harris functional with IExCor= 1009 and IRadAn=       5 diagonalized for initial guess.
 HarFok:  IExCor= 1009 AccDes= 0.00D+00 IRadAn=         5 IDoV= 1 UseB2=F ITyADJ=14
 ICtDFT=  3500011 ScaDFX=  1.000000  1.000000  1.000000  1.000000
 FoFCou: FMM=F IPFlag=           0 FMFlag=      100000 FMFlg1=           0
         NFxFlg=           0 DoJE=T BraDBF=F KetDBF=T FulRan=T
         wScrn=  0.000000 ICntrl=     500 IOpCl=  0 I1Cent=   200000004 NGrid=           0
         NMat0=    1 NMatS0=      1 NMatT0=    0 NMatD0=    1 NMtDS0=    0 NMtDT0=    0
 Symmetry not used in FoFCou.
 SCF Done:  E(RM05) =  -1724.76147222     A.U. after   17 cycles
            NFock= 17  Conv=0.52D-08     -V/T= 2.0061

 **********************************************************************

            Population analysis using the SCF density.

 **********************************************************************

 Alpha  occ. eigenvalues --  -90.56430 -90.53635 -90.53182 -15.08622 -15.05416
 Alpha  occ. eigenvalues --  -15.04969 -15.04934 -10.89945 -10.89827 -10.89736
 Alpha  occ. eigenvalues --  -10.88752 -10.87414 -10.84946 -10.84332 -10.84310
 Alpha  occ. eigenvalues --   -8.57525  -8.55035  -8.54609  -6.40063  -6.39712
 Alpha  occ. eigenvalues --   -6.39401  -6.37596  -6.37282  -6.37162  -6.36853
 Alpha  occ. eigenvalues --   -6.36821  -6.36392  -1.20533  -1.12895  -1.12139
 Alpha  occ. eigenvalues --   -1.11337  -1.07643  -1.03801  -0.98824  -0.97396
 Alpha  occ. eigenvalues --   -0.88003  -0.84555  -0.82236  -0.73687  -0.71296
 Alpha  occ. eigenvalues --   -0.67838  -0.64612  -0.59530  -0.57258  -0.55386
 Alpha  occ. eigenvalues --   -0.53385  -0.52648  -0.52243  -0.51890  -0.50883
 Alpha  occ. eigenvalues --   -0.50387  -0.49356  -0.48215  -0.46805  -0.46074
 Alpha  occ. eigenvalues --   -0.45933  -0.45296  -0.43720  -0.43113  -0.39488
 Alpha  occ. eigenvalues --   -0.37627  -0.33119
 Alpha virt. eigenvalues --   -0.09329  -0.08268  -0.02098  -0.01262  -0.00504
 Alpha virt. eigenvalues --   -0.00362   0.00154   0.01255   0.02020   0.02228
 Alpha virt. eigenvalues --    0.02393   0.02958   0.03190   0.04002   0.04273
 Alpha virt. eigenvalues --    0.04485   0.05428   0.06005   0.06299   0.07067
 Alpha virt. eigenvalues --    0.07274   0.07523   0.07708   0.08288   0.08491
 Alpha virt. eigenvalues --    0.09373   0.10094   0.10392   0.10527   0.10809
 Alpha virt. eigenvalues --    0.11289   0.11390   0.11978   0.12528   0.13229
 Alpha virt. eigenvalues --    0.13485   0.13935   0.14455   0.15075   0.15192
 Alpha virt. eigenvalues --    0.15904   0.16274   0.16680   0.16811   0.17189
 Alpha virt. eigenvalues --    0.17357   0.17839   0.18615   0.19051   0.19561
 Alpha virt. eigenvalues --    0.19864   0.20246   0.20683   0.20934   0.21267
 Alpha virt. eigenvalues --    0.21883   0.22206   0.22582   0.22819   0.23610
 Alpha virt. eigenvalues --    0.23752   0.24113   0.24371   0.24703   0.25261
 Alpha virt. eigenvalues --    0.25698   0.25854   0.26226   0.26624   0.26744
 Alpha virt. eigenvalues --    0.27071   0.28336   0.29193   0.29659   0.30370
 Alpha virt. eigenvalues --    0.30713   0.32419   0.33455   0.34154   0.34714
 Alpha virt. eigenvalues --    0.34948   0.35470   0.36120   0.36934   0.37594
 Alpha virt. eigenvalues --    0.38150   0.39578   0.40728   0.41170   0.42051
 Alpha virt. eigenvalues --    0.42119   0.43484   0.44136   0.45735   0.45980
 Alpha virt. eigenvalues --    0.46962   0.48550   0.49573   0.50236   0.50600
 Alpha virt. eigenvalues --    0.51524   0.51853   0.53529   0.54168   0.54424
 Alpha virt. eigenvalues --    0.54700   0.55463   0.55733   0.55834   0.56453
 Alpha virt. eigenvalues --    0.57773   0.58142   0.58556   0.59214   0.60309
 Alpha virt. eigenvalues --    0.60549   0.61100   0.61585   0.62102   0.62707
 Alpha virt. eigenvalues --    0.63713   0.64717   0.64952   0.66005   0.66560
 Alpha virt. eigenvalues --    0.67689   0.68189   0.68806   0.70106   0.70411
 Alpha virt. eigenvalues --    0.71048   0.72863   0.73465   0.73856   0.75373
 Alpha virt. eigenvalues --    0.75564   0.76456   0.77061   0.77550   0.77841
 Alpha virt. eigenvalues --    0.78244   0.79255   0.79760   0.79882   0.81111
 Alpha virt. eigenvalues --    0.81533   0.82546   0.83279   0.83955   0.84871
 Alpha virt. eigenvalues --    0.85698   0.85938   0.87124   0.87250   0.88403
 Alpha virt. eigenvalues --    0.88460   0.89345   0.89666   0.89831   0.90731
 Alpha virt. eigenvalues --    0.91171   0.91725   0.92828   0.93724   0.94367
 Alpha virt. eigenvalues --    0.95431   0.95567   0.97327   0.98744   0.99308
 Alpha virt. eigenvalues --    0.99843   1.01206   1.02850   1.03575   1.04747
 Alpha virt. eigenvalues --    1.05759   1.06744   1.08038   1.08543   1.09635
 Alpha virt. eigenvalues --    1.10233   1.11401   1.13198   1.13604   1.14404
 Alpha virt. eigenvalues --    1.15322   1.17096   1.18344   1.20285   1.20631
 Alpha virt. eigenvalues --    1.21607   1.22702   1.23937   1.24221   1.26555
 Alpha virt. eigenvalues --    1.27344   1.29757   1.30250   1.32274   1.34123
 Alpha virt. eigenvalues --    1.37312   1.40080   1.40257   1.41568   1.42729
 Alpha virt. eigenvalues --    1.43617   1.45024   1.46464   1.47272   1.49370
 Alpha virt. eigenvalues --    1.49823   1.50475   1.51640   1.51868   1.52334
 Alpha virt. eigenvalues --    1.53717   1.54194   1.55434   1.56136   1.56449
 Alpha virt. eigenvalues --    1.56790   1.58488   1.59724   1.60393   1.60519
 Alpha virt. eigenvalues --    1.62131   1.63282   1.64924   1.66031   1.67549
 Alpha virt. eigenvalues --    1.68613   1.69175   1.70471   1.71323   1.74153
 Alpha virt. eigenvalues --    1.76825   1.77078   1.79016   1.79377   1.81038
 Alpha virt. eigenvalues --    1.82957   1.85919   1.88148   1.89702   1.90609
 Alpha virt. eigenvalues --    1.91367   1.94486   1.95007   1.97394   2.00539
 Alpha virt. eigenvalues --    2.00827   2.05448   2.07037   2.08348   2.08472
 Alpha virt. eigenvalues --    2.10896   2.13936   2.18607   2.20234   2.24595
 Alpha virt. eigenvalues --    2.27646   2.30685   2.37026   2.37402   2.38001
 Alpha virt. eigenvalues --    2.38279   2.39370   2.39930   2.40470   2.42150
 Alpha virt. eigenvalues --    2.42559   2.43754   2.45056   2.51021   2.54995
 Alpha virt. eigenvalues --    2.61157   2.64127   2.68329   2.71900   2.73264
 Alpha virt. eigenvalues --    2.76308   2.78780   2.81840   2.94680   2.99731
 Alpha virt. eigenvalues --    3.01877   3.09942   3.11451   3.15941   3.17851
 Alpha virt. eigenvalues --    3.24290   3.27129   3.35294   3.59304   3.74892
          Condensed to atoms (all electrons):
 Mulliken charges:
               1
     1  C    0.620652
     2  C   -0.109203
     3  S    0.374368
     4  S    0.296873
     5  C    1.040417
     6  C    1.131591
     7  C    0.786410
     8  N   -1.083471
     9  S    0.557180
    10  C   -1.130705
    11  N   -0.167773
    12  C   -1.100224
    13  N   -0.180270
    14  C   -0.852853
    15  N   -0.182992
 Sum of Mulliken charges =  -0.00000
 Mulliken charges with hydrogens summed into heavy atoms:
               1
     1  C    0.620652
     2  C   -0.109203
     3  S    0.374368
     4  S    0.296873
     5  C    1.040417
     6  C    1.131591
     7  C    0.786410
     8  N   -1.083471
     9  S    0.557180
    10  C   -1.130705
    11  N   -0.167773
    12  C   -1.100224
    13  N   -0.180270
    14  C   -0.852853
    15  N   -0.182992
 Electronic spatial extent (au):  <R**2>=          58947.0054
 Charge=             -0.0000 electrons
 Dipole moment (field-independent basis, Debye):
    X=             -1.2345    Y=             -1.5073    Z=              4.2605  Tot=              4.6848

 Test job not archived.
 1\1\GINC-CHIMERA-NODE56\SP\RM05\Gen\C8N4S3\CONNORNM\19-Jan-2019\0\\#T 
 M05/Gen test Massage SCF=(fermi,maxcyc=60)\\M05 opt\\0,1\C,0,0.0146337
 ,-0.90360874,11.619364\C,0,-0.24057746,0.19404818,12.48875643\S,0,-0.4
 4288964,-0.97996659,9.92426563\S,0,-1.0418785,1.69126627,11.98791416\C
 ,0,-0.2925155,0.72817061,9.47284898\C,0,-0.53205074,1.78523468,10.2931
 4312\C,0,0.61181012,-1.92717642,12.32717241\N,0,0.11420966,0.06424827,
 13.7438015\S,0,0.77212728,-1.44573128,13.98468125\C,0,0.07253356,0.916
 12813,8.10811427\N,0,0.34792597,1.01893123,6.98348831\C,0,-0.42733208,
 3.12494763,9.81549769\N,0,-0.38262938,4.23125779,9.46193635\C,0,1.0221
 1674,-3.19836175,11.85716733\N,0,1.35645493,-4.24958143,11.49076443\\V
 ersion=AS64L-G09RevD.01\HF=-1724.7614722\RMSD=5.178e-09\Dipole=-0.4856
 913,-0.5930107,1.6762094\Quadrupole=-12.9227179,-34.0434438,46.9661617
 ,2.7809993,-7.3673627,-9.1225305\PG=C01 [X(C8N4S3)]\\@


 MEMORIES ARE LIKE AN ENGLISH GRAMMER LESSON -
 PRESENT TENSE, AND PAST PERFECT.
 Job cpu time:       0 days  1 hours 37 minutes 11.3 seconds.
 File lengths (MBytes):  RWF=     58 Int=      0 D2E=      0 Chk=      6 Scr=      1
 Normal termination of Gaussian 09 at Sat Jan 19 10:48:53 2019.
