 Entering Gaussian System, Link 0=/data/szalewicgrp/connornm/opt/Gaussian/g09-M05-par/g09/g09
 AtFile(1): blind-aug.gbs
 Initial command:
 /data/szalewicgrp/connornm/opt/Gaussian/g09-M05-par/g09/l1.exe "/scratch/local/Gau-15587.inp" -scrdir="/scratch/local/"
 Entering Link 1 = /data/szalewicgrp/connornm/opt/Gaussian/g09-M05-par/g09/l1.exe PID=     15588.
  
 Copyright (c) 1988,1990,1992,1993,1995,1998,2003,2009,2013,
            Gaussian, Inc.  All Rights Reserved.
  
 This is part of the Gaussian(R) 09 program.  It is based on
 the Gaussian(R) 03 system (copyright 2003, Gaussian, Inc.),
 the Gaussian(R) 98 system (copyright 1998, Gaussian, Inc.),
 the Gaussian(R) 94 system (copyright 1995, Gaussian, Inc.),
 the Gaussian 92(TM) system (copyright 1992, Gaussian, Inc.),
 the Gaussian 90(TM) system (copyright 1990, Gaussian, Inc.),
 the Gaussian 88(TM) system (copyright 1988, Gaussian, Inc.),
 the Gaussian 86(TM) system (copyright 1986, Carnegie Mellon
 University), and the Gaussian 82(TM) system (copyright 1983,
 Carnegie Mellon University). Gaussian is a federally registered
 trademark of Gaussian, Inc.
  
 This software contains proprietary and confidential information,
 including trade secrets, belonging to Gaussian, Inc.
  
 This software is provided under written license and may be
 used, copied, transmitted, or stored only in accord with that
 written license.
  
 The following legend is applicable only to US Government
 contracts under FAR:
  
                    RESTRICTED RIGHTS LEGEND
  
 Use, reproduction and disclosure by the US Government is
 subject to restrictions as set forth in subparagraphs (a)
 and (c) of the Commercial Computer Software - Restricted
 Rights clause in FAR 52.227-19.
  
 Gaussian, Inc.
 340 Quinnipiac St., Bldg. 40, Wallingford CT 06492
  
  
 ---------------------------------------------------------------
 Warning -- This program may not be used in any manner that
 competes with the business of Gaussian, Inc. or will provide
 assistance to any competitor of Gaussian, Inc.  The licensee
 of this program is prohibited from giving any competitor of
 Gaussian, Inc. access to this program.  By using this program,
 the user acknowledges that Gaussian, Inc. is engaged in the
 business of creating and licensing software in the field of
 computational chemistry and represents and warrants to the
 licensee that it is not a competitor of Gaussian, Inc. and that
 it will not use this program in any manner prohibited above.
 ---------------------------------------------------------------
  

 Cite this work as:
 Gaussian 09, Revision D.01,
 M. J. Frisch, G. W. Trucks, H. B. Schlegel, G. E. Scuseria, 
 M. A. Robb, J. R. Cheeseman, G. Scalmani, V. Barone, B. Mennucci, 
 G. A. Petersson, H. Nakatsuji, M. Caricato, X. Li, H. P. Hratchian, 
 A. F. Izmaylov, J. Bloino, G. Zheng, J. L. Sonnenberg, M. Hada, 
 M. Ehara, K. Toyota, R. Fukuda, J. Hasegawa, M. Ishida, T. Nakajima, 
 Y. Honda, O. Kitao, H. Nakai, T. Vreven, J. A. Montgomery, Jr., 
 J. E. Peralta, F. Ogliaro, M. Bearpark, J. J. Heyd, E. Brothers, 
 K. N. Kudin, V. N. Staroverov, T. Keith, R. Kobayashi, J. Normand, 
 K. Raghavachari, A. Rendell, J. C. Burant, S. S. Iyengar, J. Tomasi, 
 M. Cossi, N. Rega, J. M. Millam, M. Klene, J. E. Knox, J. B. Cross, 
 V. Bakken, C. Adamo, J. Jaramillo, R. Gomperts, R. E. Stratmann, 
 O. Yazyev, A. J. Austin, R. Cammi, C. Pomelli, J. W. Ochterski, 
 R. L. Martin, K. Morokuma, V. G. Zakrzewski, G. A. Voth, 
 P. Salvador, J. J. Dannenberg, S. Dapprich, A. D. Daniels, 
 O. Farkas, J. B. Foresman, J. V. Ortiz, J. Cioslowski, 
 and D. J. Fox, Gaussian, Inc., Wallingford CT, 2013.
 
 ******************************************
 Gaussian 09:  AS64L-G09RevD.01 24-Apr-2013
                19-Jan-2019 
 ******************************************
 %Chk=BLIND01101_mB
 %Mem=1GB
 %NProcShared=48
 Will use up to   48 processors via shared memory.
 ---------------------------------------------
 #T M05/Gen test Massage SCF=(fermi,maxcyc=60)
 ---------------------------------------------
 -------
 M05 opt
 -------
 Symbolic Z-matrix:
 Charge =  0 Multiplicity = 1
 6                     0.05726  -0.81838   8.14767 
 6                     0.35201  -1.09601   6.78316 
 16                    0.36516   0.70977   8.95913 
 16                    1.05586   0.0787    5.66101 
 6                     0.11901   1.84232   7.61718 
 6                     0.39515   1.58955   6.31047 
 6                    -0.44072  -1.95341   8.75515 
 7                     0.11423  -2.30994   6.34992 
 16                   -0.46948  -3.24386   7.59811 
 6                    -0.37147   3.11204   8.0395 
 7                    -0.74861   4.13811   8.43462 
 6                     0.2043    2.58977   5.31193 
 7                     0.09191   3.38306   4.46992 
 6                    -0.84877  -2.12351   10.10041 
 7                    -1.1793   -2.28366   11.20322 
 
                    Distance matrix (angstroms):
                    1          2          3          4          5
     1  C    0.000000
     2  C    1.423315   0.000000
     3  S    1.757418   2.827694   0.000000
     4  S    2.825849   1.770477   3.428253   0.000000
     5  C    2.713774   3.063280   1.773167   2.795470   0.000000
     6  C    3.047557   2.727187   2.791121   1.772288   1.359281
     7  C    1.380327   2.291783   2.789903   3.992857   4.001979
     8  N    2.336642   1.310672   3.998700   2.658358   4.341342
     9  S    2.542129   2.439721   4.263822   4.137445   5.120151
    10  C    3.955208   4.450782   2.675676   4.110426   1.425163
    11  N    5.029770   5.597745   3.642685   5.237162   2.586817
    12  C    4.436049   3.971317   4.106384   2.674416   2.424897
    13  N    5.583831   5.047859   5.232040   3.642352   3.504263
    14  C    2.517432   3.674472   3.286888   5.309014   4.778168
    15  N    3.607292   4.826214   4.047461   6.425950   5.618639
                    6          7          8          9         10
     6  C    0.000000
     7  C    4.384939   0.000000
     8  N    3.909794   2.494036   0.000000
     9  S    5.076167   1.733444   1.664607   0.000000
    10  C    2.428007   5.116215   5.699860   6.371958   0.000000
    11  N    3.509330   6.107712   6.831389   7.434461   1.162408
    12  C    1.426163   5.736923   5.009263   6.301738   2.836178
    13  N    2.587713   6.864751   5.995430   7.349618   3.609722
    14  C    5.449573   1.416040   3.876636   2.767765   5.646781
    15  N    6.435818   2.578302   5.022796   3.797715   6.306769
                   11         12         13         14         15
    11  N    0.000000
    12  C    3.613393   0.000000
    13  N    4.122555   1.162293   0.000000
    14  C    6.480188   6.800997   7.931563   0.000000
    15  N    7.006418   7.769948   8.891861   1.162367   0.000000
 Symmetry turned off by external request.
 Framework group  C1[X(C8N4S3)]
 Deg. of freedom    39
 Rotational constants (GHZ):      0.7722167      0.3388923      0.2463240
   357 basis functions,   759 primitive gaussians,   387 cartesian basis functions
    62 alpha electrons       62 beta electrons
       nuclear repulsion energy      1166.1400393783 Hartrees.
 IMHF & INEx in M05                  599485                  400514
 NAtoms=   15 NActive=   15 NUniq=   15 SFac= 1.00D+00 NAtFMM=   60 NAOKFM=F Big=F
 PrsmSu:  requested number of processors reduced to:  34 ShMem   1 Linda.
 ExpMin= 3.99D-02 ExpMax= 1.11D+05 ExpMxC= 1.07D+03 IAcc=3 IRadAn=         5 AccDes= 0.00D+00
 Harris functional with IExCor= 1009 and IRadAn=       5 diagonalized for initial guess.
 HarFok:  IExCor= 1009 AccDes= 0.00D+00 IRadAn=         5 IDoV= 1 UseB2=F ITyADJ=14
 ICtDFT=  3500011 ScaDFX=  1.000000  1.000000  1.000000  1.000000
 FoFCou: FMM=F IPFlag=           0 FMFlag=      100000 FMFlg1=           0
         NFxFlg=           0 DoJE=T BraDBF=F KetDBF=T FulRan=T
         wScrn=  0.000000 ICntrl=     500 IOpCl=  0 I1Cent=   200000004 NGrid=           0
         NMat0=    1 NMatS0=      1 NMatT0=    0 NMatD0=    1 NMtDS0=    0 NMtDT0=    0
 Symmetry not used in FoFCou.
 SCF Done:  E(RM05) =  -1724.76145828     A.U. after   17 cycles
            NFock= 17  Conv=0.51D-08     -V/T= 2.0061

 **********************************************************************

            Population analysis using the SCF density.

 **********************************************************************

 Alpha  occ. eigenvalues --  -90.56429 -90.53637 -90.53181 -15.08622 -15.05417
 Alpha  occ. eigenvalues --  -15.04969 -15.04934 -10.89945 -10.89827 -10.89736
 Alpha  occ. eigenvalues --  -10.88752 -10.87415 -10.84947 -10.84332 -10.84311
 Alpha  occ. eigenvalues --   -8.57525  -8.55036  -8.54609  -6.40062  -6.39712
 Alpha  occ. eigenvalues --   -6.39400  -6.37598  -6.37284  -6.37163  -6.36853
 Alpha  occ. eigenvalues --   -6.36823  -6.36392  -1.20533  -1.12895  -1.12139
 Alpha  occ. eigenvalues --   -1.11337  -1.07643  -1.03801  -0.98824  -0.97396
 Alpha  occ. eigenvalues --   -0.88003  -0.84555  -0.82236  -0.73687  -0.71296
 Alpha  occ. eigenvalues --   -0.67838  -0.64612  -0.59530  -0.57258  -0.55386
 Alpha  occ. eigenvalues --   -0.53385  -0.52648  -0.52243  -0.51890  -0.50883
 Alpha  occ. eigenvalues --   -0.50387  -0.49356  -0.48215  -0.46805  -0.46074
 Alpha  occ. eigenvalues --   -0.45933  -0.45296  -0.43720  -0.43113  -0.39488
 Alpha  occ. eigenvalues --   -0.37627  -0.33120
 Alpha virt. eigenvalues --   -0.09329  -0.08269  -0.02098  -0.01262  -0.00501
 Alpha virt. eigenvalues --   -0.00361   0.00152   0.01255   0.02025   0.02230
 Alpha virt. eigenvalues --    0.02397   0.02958   0.03190   0.04004   0.04281
 Alpha virt. eigenvalues --    0.04488   0.05428   0.06009   0.06300   0.07068
 Alpha virt. eigenvalues --    0.07275   0.07527   0.07708   0.08292   0.08495
 Alpha virt. eigenvalues --    0.09377   0.10093   0.10391   0.10523   0.10813
 Alpha virt. eigenvalues --    0.11288   0.11391   0.11978   0.12528   0.13227
 Alpha virt. eigenvalues --    0.13497   0.13936   0.14456   0.15076   0.15191
 Alpha virt. eigenvalues --    0.15903   0.16272   0.16680   0.16814   0.17190
 Alpha virt. eigenvalues --    0.17366   0.17838   0.18617   0.19056   0.19567
 Alpha virt. eigenvalues --    0.19859   0.20248   0.20687   0.20949   0.21269
 Alpha virt. eigenvalues --    0.21882   0.22211   0.22584   0.22816   0.23614
 Alpha virt. eigenvalues --    0.23744   0.24110   0.24370   0.24705   0.25253
 Alpha virt. eigenvalues --    0.25693   0.25858   0.26230   0.26623   0.26750
 Alpha virt. eigenvalues --    0.27069   0.28332   0.29198   0.29661   0.30368
 Alpha virt. eigenvalues --    0.30710   0.32420   0.33459   0.34157   0.34720
 Alpha virt. eigenvalues --    0.34948   0.35470   0.36121   0.36934   0.37594
 Alpha virt. eigenvalues --    0.38153   0.39577   0.40728   0.41172   0.42052
 Alpha virt. eigenvalues --    0.42124   0.43486   0.44135   0.45739   0.45974
 Alpha virt. eigenvalues --    0.46959   0.48545   0.49575   0.50227   0.50599
 Alpha virt. eigenvalues --    0.51528   0.51858   0.53527   0.54167   0.54423
 Alpha virt. eigenvalues --    0.54705   0.55465   0.55737   0.55840   0.56448
 Alpha virt. eigenvalues --    0.57767   0.58132   0.58553   0.59214   0.60313
 Alpha virt. eigenvalues --    0.60548   0.61100   0.61590   0.62105   0.62709
 Alpha virt. eigenvalues --    0.63720   0.64717   0.64957   0.66011   0.66556
 Alpha virt. eigenvalues --    0.67691   0.68188   0.68804   0.70107   0.70413
 Alpha virt. eigenvalues --    0.71046   0.72860   0.73471   0.73853   0.75371
 Alpha virt. eigenvalues --    0.75565   0.76455   0.77062   0.77549   0.77842
 Alpha virt. eigenvalues --    0.78243   0.79251   0.79760   0.79879   0.81106
 Alpha virt. eigenvalues --    0.81538   0.82544   0.83277   0.83958   0.84871
 Alpha virt. eigenvalues --    0.85698   0.85940   0.87123   0.87250   0.88403
 Alpha virt. eigenvalues --    0.88459   0.89345   0.89666   0.89830   0.90731
 Alpha virt. eigenvalues --    0.91169   0.91725   0.92828   0.93721   0.94369
 Alpha virt. eigenvalues --    0.95430   0.95562   0.97322   0.98745   0.99314
 Alpha virt. eigenvalues --    0.99847   1.01204   1.02848   1.03575   1.04751
 Alpha virt. eigenvalues --    1.05758   1.06741   1.08037   1.08542   1.09634
 Alpha virt. eigenvalues --    1.10235   1.11401   1.13196   1.13607   1.14403
 Alpha virt. eigenvalues --    1.15322   1.17103   1.18346   1.20283   1.20630
 Alpha virt. eigenvalues --    1.21608   1.22700   1.23936   1.24222   1.26558
 Alpha virt. eigenvalues --    1.27346   1.29758   1.30248   1.32270   1.34128
 Alpha virt. eigenvalues --    1.37315   1.40082   1.40260   1.41564   1.42731
 Alpha virt. eigenvalues --    1.43615   1.45022   1.46463   1.47272   1.49369
 Alpha virt. eigenvalues --    1.49823   1.50473   1.51642   1.51868   1.52332
 Alpha virt. eigenvalues --    1.53714   1.54192   1.55430   1.56136   1.56448
 Alpha virt. eigenvalues --    1.56790   1.58486   1.59728   1.60391   1.60517
 Alpha virt. eigenvalues --    1.62130   1.63279   1.64919   1.66029   1.67546
 Alpha virt. eigenvalues --    1.68615   1.69173   1.70471   1.71322   1.74152
 Alpha virt. eigenvalues --    1.76826   1.77078   1.79016   1.79379   1.81044
 Alpha virt. eigenvalues --    1.82956   1.85922   1.88148   1.89704   1.90607
 Alpha virt. eigenvalues --    1.91368   1.94485   1.95007   1.97393   2.00539
 Alpha virt. eigenvalues --    2.00827   2.05448   2.07036   2.08349   2.08474
 Alpha virt. eigenvalues --    2.10896   2.13936   2.18608   2.20235   2.24593
 Alpha virt. eigenvalues --    2.27645   2.30686   2.37025   2.37401   2.38002
 Alpha virt. eigenvalues --    2.38279   2.39369   2.39931   2.40471   2.42150
 Alpha virt. eigenvalues --    2.42560   2.43755   2.45057   2.51012   2.54996
 Alpha virt. eigenvalues --    2.61158   2.64128   2.68330   2.71898   2.73263
 Alpha virt. eigenvalues --    2.76309   2.78780   2.81841   2.94680   2.99731
 Alpha virt. eigenvalues --    3.01877   3.09943   3.11452   3.15941   3.17850
 Alpha virt. eigenvalues --    3.24295   3.27130   3.35294   3.59308   3.74891
          Condensed to atoms (all electrons):
 Mulliken charges:
               1
     1  C    0.618955
     2  C   -0.108770
     3  S    0.373956
     4  S    0.296422
     5  C    1.040806
     6  C    1.130899
     7  C    0.787760
     8  N   -1.083385
     9  S    0.557478
    10  C   -1.128893
    11  N   -0.168137
    12  C   -1.100289
    13  N   -0.180573
    14  C   -0.853268
    15  N   -0.182960
 Sum of Mulliken charges =  -0.00000
 Mulliken charges with hydrogens summed into heavy atoms:
               1
     1  C    0.618955
     2  C   -0.108770
     3  S    0.373956
     4  S    0.296422
     5  C    1.040806
     6  C    1.130899
     7  C    0.787760
     8  N   -1.083385
     9  S    0.557478
    10  C   -1.128893
    11  N   -0.168137
    12  C   -1.100289
    13  N   -0.180573
    14  C   -0.853268
    15  N   -0.182960
 Electronic spatial extent (au):  <R**2>=          29200.6989
 Charge=             -0.0000 electrons
 Dipole moment (field-independent basis, Debye):
    X=              1.6566    Y=             -4.3554    Z=             -0.4883  Tot=              4.6853

 Test job not archived.
 1\1\GINC-CHIMERA-NODE37\SP\RM05\Gen\C8N4S3\CONNORNM\19-Jan-2019\0\\#T 
 M05/Gen test Massage SCF=(fermi,maxcyc=60)\\M05 opt\\0,1\C,0,0.0572568
 1,-0.81837882,8.14766722\C,0,0.35200742,-1.09601128,6.78316403\S,0,0.3
 651639,0.70976802,8.95913325\S,0,1.05586205,0.07870147,5.66101121\C,0,
 0.11900543,1.84232392,7.61717751\C,0,0.39514525,1.58955087,6.31046536\
 C,0,-0.44072441,-1.95340546,8.75514763\N,0,0.11422941,-2.3099388,6.349
 91859\S,0,-0.46948018,-3.24385986,7.59811387\C,0,-0.37146581,3.1120367
 2,8.03950086\N,0,-0.74860529,4.13811481,8.43462438\C,0,0.20429892,2.58
 977399,5.31192978\N,0,0.09190537,3.38306437,4.46991778\C,0,-0.84877379
 ,-2.12351187,10.10040892\N,0,-1.17929546,-2.28366479,11.20322458\\Vers
 ion=AS64L-G09RevD.01\HF=-1724.7614583\RMSD=5.140e-09\Dipole=0.6517588,
 -1.7135313,-0.1921138\Quadrupole=11.990997,-2.5179427,-9.4730543,2.716
 8109,12.5854527,-17.8994227\PG=C01 [X(C8N4S3)]\\@


 IF YOU GIVE A BOY AND A PIG EVERYTHING THEY WANT,
 YOU'LL GET A BAD BOY AND A GOOD PIG.
 Job cpu time:       0 days  2 hours  1 minutes 49.3 seconds.
 File lengths (MBytes):  RWF=     58 Int=      0 D2E=      0 Chk=      6 Scr=      1
 Normal termination of Gaussian 09 at Sat Jan 19 10:43:38 2019.
