 Entering Gaussian System, Link 0=/data/szalewicgrp/connornm/opt/Gaussian/g09-M05-par/g09/g09
 AtFile(1): blind-aug.gbs
 Initial command:
 /data/szalewicgrp/connornm/opt/Gaussian/g09-M05-par/g09/l1.exe "/scratch/local/Gau-29900.inp" -scrdir="/scratch/local/"
 Entering Link 1 = /data/szalewicgrp/connornm/opt/Gaussian/g09-M05-par/g09/l1.exe PID=     29902.
  
 Copyright (c) 1988,1990,1992,1993,1995,1998,2003,2009,2013,
            Gaussian, Inc.  All Rights Reserved.
  
 This is part of the Gaussian(R) 09 program.  It is based on
 the Gaussian(R) 03 system (copyright 2003, Gaussian, Inc.),
 the Gaussian(R) 98 system (copyright 1998, Gaussian, Inc.),
 the Gaussian(R) 94 system (copyright 1995, Gaussian, Inc.),
 the Gaussian 92(TM) system (copyright 1992, Gaussian, Inc.),
 the Gaussian 90(TM) system (copyright 1990, Gaussian, Inc.),
 the Gaussian 88(TM) system (copyright 1988, Gaussian, Inc.),
 the Gaussian 86(TM) system (copyright 1986, Carnegie Mellon
 University), and the Gaussian 82(TM) system (copyright 1983,
 Carnegie Mellon University). Gaussian is a federally registered
 trademark of Gaussian, Inc.
  
 This software contains proprietary and confidential information,
 including trade secrets, belonging to Gaussian, Inc.
  
 This software is provided under written license and may be
 used, copied, transmitted, or stored only in accord with that
 written license.
  
 The following legend is applicable only to US Government
 contracts under FAR:
  
                    RESTRICTED RIGHTS LEGEND
  
 Use, reproduction and disclosure by the US Government is
 subject to restrictions as set forth in subparagraphs (a)
 and (c) of the Commercial Computer Software - Restricted
 Rights clause in FAR 52.227-19.
  
 Gaussian, Inc.
 340 Quinnipiac St., Bldg. 40, Wallingford CT 06492
  
  
 ---------------------------------------------------------------
 Warning -- This program may not be used in any manner that
 competes with the business of Gaussian, Inc. or will provide
 assistance to any competitor of Gaussian, Inc.  The licensee
 of this program is prohibited from giving any competitor of
 Gaussian, Inc. access to this program.  By using this program,
 the user acknowledges that Gaussian, Inc. is engaged in the
 business of creating and licensing software in the field of
 computational chemistry and represents and warrants to the
 licensee that it is not a competitor of Gaussian, Inc. and that
 it will not use this program in any manner prohibited above.
 ---------------------------------------------------------------
  

 Cite this work as:
 Gaussian 09, Revision D.01,
 M. J. Frisch, G. W. Trucks, H. B. Schlegel, G. E. Scuseria, 
 M. A. Robb, J. R. Cheeseman, G. Scalmani, V. Barone, B. Mennucci, 
 G. A. Petersson, H. Nakatsuji, M. Caricato, X. Li, H. P. Hratchian, 
 A. F. Izmaylov, J. Bloino, G. Zheng, J. L. Sonnenberg, M. Hada, 
 M. Ehara, K. Toyota, R. Fukuda, J. Hasegawa, M. Ishida, T. Nakajima, 
 Y. Honda, O. Kitao, H. Nakai, T. Vreven, J. A. Montgomery, Jr., 
 J. E. Peralta, F. Ogliaro, M. Bearpark, J. J. Heyd, E. Brothers, 
 K. N. Kudin, V. N. Staroverov, T. Keith, R. Kobayashi, J. Normand, 
 K. Raghavachari, A. Rendell, J. C. Burant, S. S. Iyengar, J. Tomasi, 
 M. Cossi, N. Rega, J. M. Millam, M. Klene, J. E. Knox, J. B. Cross, 
 V. Bakken, C. Adamo, J. Jaramillo, R. Gomperts, R. E. Stratmann, 
 O. Yazyev, A. J. Austin, R. Cammi, C. Pomelli, J. W. Ochterski, 
 R. L. Martin, K. Morokuma, V. G. Zakrzewski, G. A. Voth, 
 P. Salvador, J. J. Dannenberg, S. Dapprich, A. D. Daniels, 
 O. Farkas, J. B. Foresman, J. V. Ortiz, J. Cioslowski, 
 and D. J. Fox, Gaussian, Inc., Wallingford CT, 2013.
 
 ******************************************
 Gaussian 09:  AS64L-G09RevD.01 24-Apr-2013
                19-Jan-2019 
 ******************************************
 %Chk=BLIND00184_mB
 %Mem=1GB
 %NProcShared=48
 Will use up to   48 processors via shared memory.
 ---------------------------------------------
 #T M05/Gen test Massage SCF=(fermi,maxcyc=60)
 ---------------------------------------------
 -------
 M05 opt
 -------
 Symbolic Z-matrix:
 Charge =  0 Multiplicity = 1
 6                     0.24784  -0.97468   8.52224 
 6                     0.10295  -0.20274   9.70924 
 16                   -0.63046  -0.7029    7.0245 
 16                   -0.97576   1.19307   9.85981 
 6                    -0.81084   1.06042   7.07237 
 6                    -0.9489    1.80929   8.19832 
 6                     1.12948  -2.01244   8.74824 
 7                     0.79089  -0.57768   10.75996 
 16                    1.66498  -1.94666   10.39558 
 6                    -0.84617   1.65455   5.77743 
 7                    -0.89339   2.08993   4.70067 
 6                    -1.13581   3.22119   8.12384 
 7                    -1.31928   4.36883   8.10959 
 6                     1.54949  -3.02111   7.8475 
 7                     1.89797  -3.86184   7.12443 
 
                    Distance matrix (angstroms):
                    1          2          3          4          5
     1  C    0.000000
     2  C    1.423315   0.000000
     3  S    1.757418   2.827694   0.000000
     4  S    2.825849   1.770477   3.428253   0.000000
     5  C    2.713774   3.063280   1.773167   2.795470   0.000000
     6  C    3.047557   2.727187   2.791121   1.772288   1.359281
     7  C    1.380327   2.291783   2.789903   3.992857   4.001979
     8  N    2.336642   1.310672   3.998700   2.658358   4.341342
     9  S    2.542129   2.439721   4.263822   4.137445   5.120151
    10  C    3.955208   4.450782   2.675676   4.110426   1.425163
    11  N    5.029770   5.597745   3.642685   5.237162   2.586817
    12  C    4.436049   3.971317   4.106384   2.674416   2.424897
    13  N    5.583831   5.047859   5.232040   3.642352   3.504263
    14  C    2.517432   3.674472   3.286888   5.309014   4.778168
    15  N    3.607292   4.826214   4.047461   6.425950   5.618639
                    6          7          8          9         10
     6  C    0.000000
     7  C    4.384939   0.000000
     8  N    3.909794   2.494036   0.000000
     9  S    5.076167   1.733444   1.664607   0.000000
    10  C    2.428007   5.116215   5.699860   6.371958   0.000000
    11  N    3.509330   6.107712   6.831389   7.434461   1.162408
    12  C    1.426163   5.736923   5.009263   6.301738   2.836178
    13  N    2.587713   6.864751   5.995430   7.349618   3.609722
    14  C    5.449573   1.416040   3.876636   2.767765   5.646781
    15  N    6.435818   2.578302   5.022796   3.797715   6.306769
                   11         12         13         14         15
    11  N    0.000000
    12  C    3.613393   0.000000
    13  N    4.122555   1.162293   0.000000
    14  C    6.480188   6.800997   7.931563   0.000000
    15  N    7.006418   7.769948   8.891861   1.162367   0.000000
 Symmetry turned off by external request.
 Framework group  C1[X(C8N4S3)]
 Deg. of freedom    39
 Rotational constants (GHZ):      0.7722167      0.3388923      0.2463240
   357 basis functions,   759 primitive gaussians,   387 cartesian basis functions
    62 alpha electrons       62 beta electrons
       nuclear repulsion energy      1166.1400389730 Hartrees.
 IMHF & INEx in M05                  599485                  400514
 NAtoms=   15 NActive=   15 NUniq=   15 SFac= 1.00D+00 NAtFMM=   60 NAOKFM=F Big=F
 PrsmSu:  requested number of processors reduced to:  34 ShMem   1 Linda.
 ExpMin= 3.99D-02 ExpMax= 1.11D+05 ExpMxC= 1.07D+03 IAcc=3 IRadAn=         5 AccDes= 0.00D+00
 Harris functional with IExCor= 1009 and IRadAn=       5 diagonalized for initial guess.
 HarFok:  IExCor= 1009 AccDes= 0.00D+00 IRadAn=         5 IDoV= 1 UseB2=F ITyADJ=14
 ICtDFT=  3500011 ScaDFX=  1.000000  1.000000  1.000000  1.000000
 FoFCou: FMM=F IPFlag=           0 FMFlag=      100000 FMFlg1=           0
         NFxFlg=           0 DoJE=T BraDBF=F KetDBF=T FulRan=T
         wScrn=  0.000000 ICntrl=     500 IOpCl=  0 I1Cent=   200000004 NGrid=           0
         NMat0=    1 NMatS0=      1 NMatT0=    0 NMatD0=    1 NMtDS0=    0 NMtDT0=    0
 Symmetry not used in FoFCou.
 SCF Done:  E(RM05) =  -1724.76145712     A.U. after   17 cycles
            NFock= 17  Conv=0.52D-08     -V/T= 2.0061

 **********************************************************************

            Population analysis using the SCF density.

 **********************************************************************

 Alpha  occ. eigenvalues --  -90.56430 -90.53637 -90.53181 -15.08621 -15.05417
 Alpha  occ. eigenvalues --  -15.04969 -15.04934 -10.89945 -10.89827 -10.89736
 Alpha  occ. eigenvalues --  -10.88751 -10.87414 -10.84947 -10.84332 -10.84310
 Alpha  occ. eigenvalues --   -8.57526  -8.55036  -8.54609  -6.40063  -6.39713
 Alpha  occ. eigenvalues --   -6.39401  -6.37598  -6.37283  -6.37162  -6.36852
 Alpha  occ. eigenvalues --   -6.36823  -6.36392  -1.20533  -1.12895  -1.12139
 Alpha  occ. eigenvalues --   -1.11337  -1.07643  -1.03801  -0.98824  -0.97396
 Alpha  occ. eigenvalues --   -0.88003  -0.84555  -0.82236  -0.73687  -0.71296
 Alpha  occ. eigenvalues --   -0.67839  -0.64612  -0.59530  -0.57258  -0.55386
 Alpha  occ. eigenvalues --   -0.53384  -0.52648  -0.52243  -0.51890  -0.50884
 Alpha  occ. eigenvalues --   -0.50387  -0.49357  -0.48215  -0.46805  -0.46074
 Alpha  occ. eigenvalues --   -0.45933  -0.45296  -0.43720  -0.43113  -0.39488
 Alpha  occ. eigenvalues --   -0.37628  -0.33120
 Alpha virt. eigenvalues --   -0.09329  -0.08269  -0.02099  -0.01263  -0.00504
 Alpha virt. eigenvalues --   -0.00361   0.00152   0.01254   0.02019   0.02229
 Alpha virt. eigenvalues --    0.02393   0.02955   0.03187   0.04004   0.04275
 Alpha virt. eigenvalues --    0.04486   0.05427   0.06006   0.06300   0.07067
 Alpha virt. eigenvalues --    0.07270   0.07525   0.07707   0.08289   0.08491
 Alpha virt. eigenvalues --    0.09375   0.10094   0.10392   0.10524   0.10812
 Alpha virt. eigenvalues --    0.11286   0.11392   0.11977   0.12525   0.13226
 Alpha virt. eigenvalues --    0.13490   0.13936   0.14454   0.15074   0.15192
 Alpha virt. eigenvalues --    0.15904   0.16271   0.16675   0.16810   0.17186
 Alpha virt. eigenvalues --    0.17353   0.17839   0.18615   0.19048   0.19565
 Alpha virt. eigenvalues --    0.19856   0.20238   0.20685   0.20951   0.21262
 Alpha virt. eigenvalues --    0.21879   0.22202   0.22580   0.22826   0.23617
 Alpha virt. eigenvalues --    0.23748   0.24113   0.24368   0.24702   0.25261
 Alpha virt. eigenvalues --    0.25697   0.25844   0.26228   0.26622   0.26751
 Alpha virt. eigenvalues --    0.27071   0.28334   0.29195   0.29664   0.30368
 Alpha virt. eigenvalues --    0.30712   0.32420   0.33452   0.34154   0.34716
 Alpha virt. eigenvalues --    0.34948   0.35471   0.36122   0.36935   0.37594
 Alpha virt. eigenvalues --    0.38149   0.39578   0.40728   0.41169   0.42051
 Alpha virt. eigenvalues --    0.42118   0.43485   0.44139   0.45740   0.45986
 Alpha virt. eigenvalues --    0.46961   0.48545   0.49574   0.50230   0.50591
 Alpha virt. eigenvalues --    0.51526   0.51862   0.53526   0.54167   0.54426
 Alpha virt. eigenvalues --    0.54702   0.55462   0.55729   0.55837   0.56451
 Alpha virt. eigenvalues --    0.57767   0.58141   0.58554   0.59216   0.60310
 Alpha virt. eigenvalues --    0.60555   0.61096   0.61589   0.62107   0.62709
 Alpha virt. eigenvalues --    0.63712   0.64716   0.64951   0.66005   0.66555
 Alpha virt. eigenvalues --    0.67687   0.68190   0.68807   0.70107   0.70416
 Alpha virt. eigenvalues --    0.71049   0.72863   0.73468   0.73857   0.75369
 Alpha virt. eigenvalues --    0.75564   0.76457   0.77061   0.77552   0.77842
 Alpha virt. eigenvalues --    0.78245   0.79255   0.79760   0.79877   0.81109
 Alpha virt. eigenvalues --    0.81538   0.82547   0.83274   0.83955   0.84871
 Alpha virt. eigenvalues --    0.85697   0.85940   0.87124   0.87250   0.88405
 Alpha virt. eigenvalues --    0.88460   0.89345   0.89666   0.89830   0.90733
 Alpha virt. eigenvalues --    0.91172   0.91721   0.92833   0.93726   0.94372
 Alpha virt. eigenvalues --    0.95433   0.95568   0.97324   0.98742   0.99314
 Alpha virt. eigenvalues --    0.99849   1.01207   1.02847   1.03576   1.04753
 Alpha virt. eigenvalues --    1.05757   1.06747   1.08037   1.08541   1.09639
 Alpha virt. eigenvalues --    1.10234   1.11402   1.13195   1.13607   1.14402
 Alpha virt. eigenvalues --    1.15322   1.17098   1.18344   1.20287   1.20633
 Alpha virt. eigenvalues --    1.21613   1.22701   1.23936   1.24222   1.26562
 Alpha virt. eigenvalues --    1.27345   1.29757   1.30252   1.32266   1.34123
 Alpha virt. eigenvalues --    1.37310   1.40083   1.40255   1.41568   1.42729
 Alpha virt. eigenvalues --    1.43615   1.45023   1.46462   1.47275   1.49370
 Alpha virt. eigenvalues --    1.49824   1.50474   1.51645   1.51869   1.52336
 Alpha virt. eigenvalues --    1.53717   1.54193   1.55430   1.56138   1.56449
 Alpha virt. eigenvalues --    1.56789   1.58486   1.59725   1.60389   1.60518
 Alpha virt. eigenvalues --    1.62128   1.63278   1.64920   1.66026   1.67546
 Alpha virt. eigenvalues --    1.68613   1.69176   1.70469   1.71324   1.74150
 Alpha virt. eigenvalues --    1.76825   1.77076   1.79019   1.79375   1.81042
 Alpha virt. eigenvalues --    1.82959   1.85920   1.88151   1.89704   1.90608
 Alpha virt. eigenvalues --    1.91367   1.94486   1.95007   1.97393   2.00538
 Alpha virt. eigenvalues --    2.00828   2.05448   2.07034   2.08350   2.08472
 Alpha virt. eigenvalues --    2.10896   2.13936   2.18609   2.20235   2.24594
 Alpha virt. eigenvalues --    2.27645   2.30685   2.37026   2.37401   2.38001
 Alpha virt. eigenvalues --    2.38279   2.39370   2.39930   2.40470   2.42150
 Alpha virt. eigenvalues --    2.42560   2.43757   2.45057   2.51021   2.54996
 Alpha virt. eigenvalues --    2.61157   2.64125   2.68330   2.71898   2.73263
 Alpha virt. eigenvalues --    2.76309   2.78780   2.81840   2.94681   2.99729
 Alpha virt. eigenvalues --    3.01873   3.09942   3.11450   3.15939   3.17851
 Alpha virt. eigenvalues --    3.24291   3.27129   3.35292   3.59308   3.74889
          Condensed to atoms (all electrons):
 Mulliken charges:
               1
     1  C    0.619375
     2  C   -0.108699
     3  S    0.374260
     4  S    0.296586
     5  C    1.040011
     6  C    1.130446
     7  C    0.787779
     8  N   -1.083174
     9  S    0.557222
    10  C   -1.130030
    11  N   -0.167820
    12  C   -1.099430
    13  N   -0.180391
    14  C   -0.853232
    15  N   -0.182903
 Sum of Mulliken charges =  -0.00000
 Mulliken charges with hydrogens summed into heavy atoms:
               1
     1  C    0.619375
     2  C   -0.108699
     3  S    0.374260
     4  S    0.296586
     5  C    1.040011
     6  C    1.130446
     7  C    0.787779
     8  N   -1.083174
     9  S    0.557222
    10  C   -1.130030
    11  N   -0.167820
    12  C   -1.099430
    13  N   -0.180391
    14  C   -0.853232
    15  N   -0.182903
 Electronic spatial extent (au):  <R**2>=          34836.7675
 Charge=             -0.0000 electrons
 Dipole moment (field-independent basis, Debye):
    X=              0.1294    Y=             -2.7466    Z=              3.7935  Tot=              4.6852

 Test job not archived.
 1\1\GINC-CHIMERA-NODE23\SP\RM05\Gen\C8N4S3\CONNORNM\19-Jan-2019\0\\#T 
 M05/Gen test Massage SCF=(fermi,maxcyc=60)\\M05 opt\\0,1\C,0,0.2478428
 3,-0.97467533,8.52224369\C,0,0.10294848,-0.20274498,9.70923813\S,0,-0.
 63046186,-0.70289503,7.02450105\S,0,-0.97576137,1.19307026,9.8598144\C
 ,0,-0.81083612,1.06042454,7.07236829\C,0,-0.94890053,1.80929416,8.1983
 2414\C,0,1.12947896,-2.01243612,8.74823814\N,0,0.79089131,-0.57767508,
 10.7599627\S,0,1.66498209,-1.94665558,10.39558021\C,0,-0.84617348,1.65
 454612,5.77743181\N,0,-0.89338838,2.08992589,4.70067361\C,0,-1.1358104
 5,3.22119318,8.12384073\N,0,-1.31927744,4.36882675,8.10958651\C,0,1.54
 948816,-3.02111117,7.84749658\N,0,1.89797436,-3.86184492,7.12443362\\V
 ersion=AS64L-G09RevD.01\HF=-1724.7614571\RMSD=5.156e-09\Dipole=0.05091
 33,-1.0806102,1.4924667\Quadrupole=-5.5410622,-25.6806489,31.2217111,5
 .9794989,2.0186449,-17.4381811\PG=C01 [X(C8N4S3)]\\@


 O WAD SOME POWER THE GIFTIE GIE US       
 TO SEE OURSELS AS OTHERS SEE US.....     
 IT WOULD FRAE MONIE A BLUNDER FREE US,   
                     AND FOOLISH NOTION...
 WHAT AIRS IN DRESS AND GAIT WAD LEA'E US,
                     AND EV'N DEVOTION....
                                          
              (ROBERT BURNS 'TO A LOUSE') 
 Job cpu time:       0 days  1 hours 37 minutes 19.8 seconds.
 File lengths (MBytes):  RWF=     58 Int=      0 D2E=      0 Chk=      6 Scr=      1
 Normal termination of Gaussian 09 at Sat Jan 19 10:42:40 2019.
