 Entering Gaussian System, Link 0=/data/szalewicgrp/connornm/opt/Gaussian/g09-M05-par/g09/g09
 AtFile(1): blind-aug.gbs
 Initial command:
 /data/szalewicgrp/connornm/opt/Gaussian/g09-M05-par/g09/l1.exe "/scratch/local/Gau-33285.inp" -scrdir="/scratch/local/"
 Entering Link 1 = /data/szalewicgrp/connornm/opt/Gaussian/g09-M05-par/g09/l1.exe PID=     33286.
  
 Copyright (c) 1988,1990,1992,1993,1995,1998,2003,2009,2013,
            Gaussian, Inc.  All Rights Reserved.
  
 This is part of the Gaussian(R) 09 program.  It is based on
 the Gaussian(R) 03 system (copyright 2003, Gaussian, Inc.),
 the Gaussian(R) 98 system (copyright 1998, Gaussian, Inc.),
 the Gaussian(R) 94 system (copyright 1995, Gaussian, Inc.),
 the Gaussian 92(TM) system (copyright 1992, Gaussian, Inc.),
 the Gaussian 90(TM) system (copyright 1990, Gaussian, Inc.),
 the Gaussian 88(TM) system (copyright 1988, Gaussian, Inc.),
 the Gaussian 86(TM) system (copyright 1986, Carnegie Mellon
 University), and the Gaussian 82(TM) system (copyright 1983,
 Carnegie Mellon University). Gaussian is a federally registered
 trademark of Gaussian, Inc.
  
 This software contains proprietary and confidential information,
 including trade secrets, belonging to Gaussian, Inc.
  
 This software is provided under written license and may be
 used, copied, transmitted, or stored only in accord with that
 written license.
  
 The following legend is applicable only to US Government
 contracts under FAR:
  
                    RESTRICTED RIGHTS LEGEND
  
 Use, reproduction and disclosure by the US Government is
 subject to restrictions as set forth in subparagraphs (a)
 and (c) of the Commercial Computer Software - Restricted
 Rights clause in FAR 52.227-19.
  
 Gaussian, Inc.
 340 Quinnipiac St., Bldg. 40, Wallingford CT 06492
  
  
 ---------------------------------------------------------------
 Warning -- This program may not be used in any manner that
 competes with the business of Gaussian, Inc. or will provide
 assistance to any competitor of Gaussian, Inc.  The licensee
 of this program is prohibited from giving any competitor of
 Gaussian, Inc. access to this program.  By using this program,
 the user acknowledges that Gaussian, Inc. is engaged in the
 business of creating and licensing software in the field of
 computational chemistry and represents and warrants to the
 licensee that it is not a competitor of Gaussian, Inc. and that
 it will not use this program in any manner prohibited above.
 ---------------------------------------------------------------
  

 Cite this work as:
 Gaussian 09, Revision D.01,
 M. J. Frisch, G. W. Trucks, H. B. Schlegel, G. E. Scuseria, 
 M. A. Robb, J. R. Cheeseman, G. Scalmani, V. Barone, B. Mennucci, 
 G. A. Petersson, H. Nakatsuji, M. Caricato, X. Li, H. P. Hratchian, 
 A. F. Izmaylov, J. Bloino, G. Zheng, J. L. Sonnenberg, M. Hada, 
 M. Ehara, K. Toyota, R. Fukuda, J. Hasegawa, M. Ishida, T. Nakajima, 
 Y. Honda, O. Kitao, H. Nakai, T. Vreven, J. A. Montgomery, Jr., 
 J. E. Peralta, F. Ogliaro, M. Bearpark, J. J. Heyd, E. Brothers, 
 K. N. Kudin, V. N. Staroverov, T. Keith, R. Kobayashi, J. Normand, 
 K. Raghavachari, A. Rendell, J. C. Burant, S. S. Iyengar, J. Tomasi, 
 M. Cossi, N. Rega, J. M. Millam, M. Klene, J. E. Knox, J. B. Cross, 
 V. Bakken, C. Adamo, J. Jaramillo, R. Gomperts, R. E. Stratmann, 
 O. Yazyev, A. J. Austin, R. Cammi, C. Pomelli, J. W. Ochterski, 
 R. L. Martin, K. Morokuma, V. G. Zakrzewski, G. A. Voth, 
 P. Salvador, J. J. Dannenberg, S. Dapprich, A. D. Daniels, 
 O. Farkas, J. B. Foresman, J. V. Ortiz, J. Cioslowski, 
 and D. J. Fox, Gaussian, Inc., Wallingford CT, 2013.
 
 ******************************************
 Gaussian 09:  AS64L-G09RevD.01 24-Apr-2013
                19-Jan-2019 
 ******************************************
 %Chk=BLIND01924_mB
 %Mem=1GB
 %NProcShared=48
 Will use up to   48 processors via shared memory.
 ---------------------------------------------
 #T M05/Gen test Massage SCF=(fermi,maxcyc=60)
 ---------------------------------------------
 -------
 M05 opt
 -------
 Symbolic Z-matrix:
 Charge =  0 Multiplicity = 1
 6                     0.27819  -0.55028   10.94459 
 6                     1.37459  -0.09571   11.73013 
 16                   -1.32272  -0.92794   11.56346 
 16                    1.29198   0.19671   13.47434 
 6                    -1.44089   0.24496   12.88802 
 6                    -0.40231   0.68797   13.64482 
 6                     0.68299  -0.7178    9.63563 
 7                     2.52069   0.0825    11.11975 
 16                    2.36723  -0.32636   9.51344 
 6                    -2.77688   0.67334   13.13844 
 7                    -3.88483   0.97436   13.32016 
 6                    -0.61326   1.59968   14.72103 
 7                    -0.74227   2.31879   15.625 
 6                    -0.08059  -1.16327   8.52943 
 7                    -0.68975  -1.53599   7.61231 
 
                    Distance matrix (angstroms):
                    1          2          3          4          5
     1  C    0.000000
     2  C    1.423315   0.000000
     3  S    1.757418   2.827694   0.000000
     4  S    2.825849   1.770477   3.428253   0.000000
     5  C    2.713774   3.063280   1.773167   2.795470   0.000000
     6  C    3.047557   2.727187   2.791121   1.772288   1.359281
     7  C    1.380327   2.291783   2.789903   3.992857   4.001979
     8  N    2.336642   1.310672   3.998700   2.658358   4.341342
     9  S    2.542129   2.439721   4.263822   4.137445   5.120151
    10  C    3.955208   4.450782   2.675676   4.110426   1.425163
    11  N    5.029770   5.597745   3.642685   5.237162   2.586817
    12  C    4.436049   3.971317   4.106384   2.674416   2.424897
    13  N    5.583831   5.047859   5.232040   3.642352   3.504263
    14  C    2.517432   3.674472   3.286888   5.309014   4.778168
    15  N    3.607292   4.826214   4.047461   6.425950   5.618639
                    6          7          8          9         10
     6  C    0.000000
     7  C    4.384939   0.000000
     8  N    3.909794   2.494036   0.000000
     9  S    5.076167   1.733444   1.664607   0.000000
    10  C    2.428007   5.116215   5.699860   6.371958   0.000000
    11  N    3.509330   6.107712   6.831389   7.434461   1.162408
    12  C    1.426163   5.736923   5.009263   6.301738   2.836178
    13  N    2.587713   6.864751   5.995430   7.349618   3.609722
    14  C    5.449573   1.416040   3.876636   2.767765   5.646781
    15  N    6.435818   2.578302   5.022796   3.797715   6.306769
                   11         12         13         14         15
    11  N    0.000000
    12  C    3.613393   0.000000
    13  N    4.122555   1.162293   0.000000
    14  C    6.480188   6.800997   7.931563   0.000000
    15  N    7.006418   7.769948   8.891861   1.162367   0.000000
 Symmetry turned off by external request.
 Framework group  C1[X(C8N4S3)]
 Deg. of freedom    39
 Rotational constants (GHZ):      0.7722167      0.3388923      0.2463240
   357 basis functions,   759 primitive gaussians,   387 cartesian basis functions
    62 alpha electrons       62 beta electrons
       nuclear repulsion energy      1166.1400393960 Hartrees.
 IMHF & INEx in M05                  599485                  400514
 NAtoms=   15 NActive=   15 NUniq=   15 SFac= 1.00D+00 NAtFMM=   60 NAOKFM=F Big=F
 PrsmSu:  requested number of processors reduced to:  34 ShMem   1 Linda.
 ExpMin= 3.99D-02 ExpMax= 1.11D+05 ExpMxC= 1.07D+03 IAcc=3 IRadAn=         5 AccDes= 0.00D+00
 Harris functional with IExCor= 1009 and IRadAn=       5 diagonalized for initial guess.
 HarFok:  IExCor= 1009 AccDes= 0.00D+00 IRadAn=         5 IDoV= 1 UseB2=F ITyADJ=14
 ICtDFT=  3500011 ScaDFX=  1.000000  1.000000  1.000000  1.000000
 FoFCou: FMM=F IPFlag=           0 FMFlag=      100000 FMFlg1=           0
         NFxFlg=           0 DoJE=T BraDBF=F KetDBF=T FulRan=T
         wScrn=  0.000000 ICntrl=     500 IOpCl=  0 I1Cent=   200000004 NGrid=           0
         NMat0=    1 NMatS0=      1 NMatT0=    0 NMatD0=    1 NMtDS0=    0 NMtDT0=    0
 Symmetry not used in FoFCou.
 SCF Done:  E(RM05) =  -1724.76147698     A.U. after   17 cycles
            NFock= 17  Conv=0.51D-08     -V/T= 2.0061

 **********************************************************************

            Population analysis using the SCF density.

 **********************************************************************

 Alpha  occ. eigenvalues --  -90.56431 -90.53634 -90.53182 -15.08622 -15.05416
 Alpha  occ. eigenvalues --  -15.04969 -15.04934 -10.89945 -10.89826 -10.89736
 Alpha  occ. eigenvalues --  -10.88752 -10.87413 -10.84946 -10.84332 -10.84310
 Alpha  occ. eigenvalues --   -8.57526  -8.55034  -8.54609  -6.40063  -6.39713
 Alpha  occ. eigenvalues --   -6.39401  -6.37596  -6.37281  -6.37162  -6.36853
 Alpha  occ. eigenvalues --   -6.36820  -6.36392  -1.20533  -1.12895  -1.12139
 Alpha  occ. eigenvalues --   -1.11337  -1.07643  -1.03801  -0.98824  -0.97396
 Alpha  occ. eigenvalues --   -0.88002  -0.84555  -0.82236  -0.73686  -0.71296
 Alpha  occ. eigenvalues --   -0.67838  -0.64612  -0.59530  -0.57258  -0.55386
 Alpha  occ. eigenvalues --   -0.53385  -0.52647  -0.52242  -0.51890  -0.50883
 Alpha  occ. eigenvalues --   -0.50387  -0.49356  -0.48215  -0.46805  -0.46074
 Alpha  occ. eigenvalues --   -0.45933  -0.45296  -0.43720  -0.43113  -0.39488
 Alpha  occ. eigenvalues --   -0.37627  -0.33119
 Alpha virt. eigenvalues --   -0.09329  -0.08268  -0.02097  -0.01262  -0.00501
 Alpha virt. eigenvalues --   -0.00361   0.00154   0.01255   0.02024   0.02229
 Alpha virt. eigenvalues --    0.02394   0.02958   0.03190   0.04003   0.04276
 Alpha virt. eigenvalues --    0.04488   0.05428   0.06007   0.06300   0.07068
 Alpha virt. eigenvalues --    0.07273   0.07525   0.07708   0.08290   0.08493
 Alpha virt. eigenvalues --    0.09375   0.10093   0.10392   0.10526   0.10815
 Alpha virt. eigenvalues --    0.11289   0.11394   0.11978   0.12528   0.13229
 Alpha virt. eigenvalues --    0.13489   0.13937   0.14455   0.15078   0.15191
 Alpha virt. eigenvalues --    0.15901   0.16278   0.16678   0.16816   0.17188
 Alpha virt. eigenvalues --    0.17360   0.17840   0.18615   0.19051   0.19566
 Alpha virt. eigenvalues --    0.19866   0.20243   0.20686   0.20939   0.21271
 Alpha virt. eigenvalues --    0.21884   0.22209   0.22584   0.22820   0.23610
 Alpha virt. eigenvalues --    0.23747   0.24115   0.24372   0.24703   0.25260
 Alpha virt. eigenvalues --    0.25696   0.25857   0.26226   0.26624   0.26745
 Alpha virt. eigenvalues --    0.27073   0.28336   0.29194   0.29661   0.30367
 Alpha virt. eigenvalues --    0.30714   0.32419   0.33457   0.34155   0.34716
 Alpha virt. eigenvalues --    0.34949   0.35470   0.36120   0.36936   0.37594
 Alpha virt. eigenvalues --    0.38153   0.39575   0.40727   0.41170   0.42049
 Alpha virt. eigenvalues --    0.42124   0.43484   0.44133   0.45736   0.45976
 Alpha virt. eigenvalues --    0.46962   0.48555   0.49574   0.50235   0.50606
 Alpha virt. eigenvalues --    0.51525   0.51856   0.53528   0.54166   0.54428
 Alpha virt. eigenvalues --    0.54702   0.55465   0.55736   0.55839   0.56453
 Alpha virt. eigenvalues --    0.57777   0.58138   0.58553   0.59215   0.60309
 Alpha virt. eigenvalues --    0.60553   0.61103   0.61584   0.62104   0.62711
 Alpha virt. eigenvalues --    0.63715   0.64717   0.64954   0.66007   0.66557
 Alpha virt. eigenvalues --    0.67688   0.68190   0.68808   0.70107   0.70416
 Alpha virt. eigenvalues --    0.71048   0.72862   0.73469   0.73854   0.75374
 Alpha virt. eigenvalues --    0.75566   0.76455   0.77062   0.77553   0.77844
 Alpha virt. eigenvalues --    0.78246   0.79255   0.79761   0.79881   0.81109
 Alpha virt. eigenvalues --    0.81536   0.82546   0.83279   0.83957   0.84871
 Alpha virt. eigenvalues --    0.85699   0.85939   0.87124   0.87251   0.88402
 Alpha virt. eigenvalues --    0.88459   0.89345   0.89664   0.89830   0.90730
 Alpha virt. eigenvalues --    0.91170   0.91722   0.92827   0.93720   0.94368
 Alpha virt. eigenvalues --    0.95431   0.95564   0.97326   0.98747   0.99311
 Alpha virt. eigenvalues --    0.99846   1.01207   1.02846   1.03575   1.04752
 Alpha virt. eigenvalues --    1.05758   1.06746   1.08042   1.08543   1.09635
 Alpha virt. eigenvalues --    1.10234   1.11403   1.13196   1.13607   1.14404
 Alpha virt. eigenvalues --    1.15325   1.17102   1.18343   1.20283   1.20630
 Alpha virt. eigenvalues --    1.21608   1.22701   1.23938   1.24217   1.26558
 Alpha virt. eigenvalues --    1.27346   1.29756   1.30251   1.32271   1.34125
 Alpha virt. eigenvalues --    1.37314   1.40083   1.40263   1.41565   1.42727
 Alpha virt. eigenvalues --    1.43619   1.45024   1.46467   1.47272   1.49370
 Alpha virt. eigenvalues --    1.49824   1.50475   1.51642   1.51868   1.52333
 Alpha virt. eigenvalues --    1.53716   1.54194   1.55435   1.56136   1.56452
 Alpha virt. eigenvalues --    1.56792   1.58488   1.59726   1.60390   1.60514
 Alpha virt. eigenvalues --    1.62130   1.63283   1.64923   1.66030   1.67549
 Alpha virt. eigenvalues --    1.68615   1.69175   1.70471   1.71323   1.74153
 Alpha virt. eigenvalues --    1.76825   1.77079   1.79013   1.79378   1.81040
 Alpha virt. eigenvalues --    1.82957   1.85922   1.88151   1.89701   1.90608
 Alpha virt. eigenvalues --    1.91369   1.94485   1.95006   1.97395   2.00538
 Alpha virt. eigenvalues --    2.00828   2.05448   2.07036   2.08347   2.08473
 Alpha virt. eigenvalues --    2.10898   2.13938   2.18608   2.20232   2.24595
 Alpha virt. eigenvalues --    2.27644   2.30686   2.37027   2.37402   2.38002
 Alpha virt. eigenvalues --    2.38279   2.39369   2.39931   2.40470   2.42149
 Alpha virt. eigenvalues --    2.42560   2.43756   2.45056   2.51020   2.54996
 Alpha virt. eigenvalues --    2.61158   2.64124   2.68330   2.71898   2.73264
 Alpha virt. eigenvalues --    2.76308   2.78779   2.81840   2.94680   2.99730
 Alpha virt. eigenvalues --    3.01876   3.09942   3.11450   3.15939   3.17849
 Alpha virt. eigenvalues --    3.24294   3.27128   3.35295   3.59306   3.74891
          Condensed to atoms (all electrons):
 Mulliken charges:
               1
     1  C    0.619852
     2  C   -0.109425
     3  S    0.373830
     4  S    0.297283
     5  C    1.039968
     6  C    1.131096
     7  C    0.786904
     8  N   -1.083302
     9  S    0.557629
    10  C   -1.129969
    11  N   -0.167940
    12  C   -1.099655
    13  N   -0.180454
    14  C   -0.852784
    15  N   -0.183032
 Sum of Mulliken charges =  -0.00000
 Mulliken charges with hydrogens summed into heavy atoms:
               1
     1  C    0.619852
     2  C   -0.109425
     3  S    0.373830
     4  S    0.297283
     5  C    1.039968
     6  C    1.131096
     7  C    0.786904
     8  N   -1.083302
     9  S    0.557629
    10  C   -1.129969
    11  N   -0.167940
    12  C   -1.099655
    13  N   -0.180454
    14  C   -0.852784
    15  N   -0.183032
 Electronic spatial extent (au):  <R**2>=          65254.4389
 Charge=              0.0000 electrons
 Dipole moment (field-independent basis, Debye):
    X=              4.0005    Y=             -1.9763    Z=             -1.4295  Tot=              4.6854

 Test job not archived.
 1\1\GINC-CHIMERA-NODE11\SP\RM05\Gen\C8N4S3\CONNORNM\19-Jan-2019\0\\#T 
 M05/Gen test Massage SCF=(fermi,maxcyc=60)\\M05 opt\\0,1\C,0,0.2781863
 7,-0.55028223,10.94458585\C,0,1.37459158,-0.09570587,11.7301319\S,0,-1
 .32271558,-0.92793713,11.56346093\S,0,1.29197937,0.1967126,13.47433802
 \C,0,-1.44088658,0.24496354,12.88802188\C,0,-0.40230745,0.687967,13.64
 482132\C,0,0.68298877,-0.71779589,9.63562542\N,0,2.52068636,0.08249717
 ,11.1197464\S,0,2.36723131,-0.32635584,9.51344392\C,0,-2.77687766,0.67
 33421,13.13844013\N,0,-3.88483057,0.97436051,13.32015769\C,0,-0.613264
 32,1.59967786,14.72102876\N,0,-0.74227125,2.31879258,15.62499633\C,0,-
 0.08058603,-1.16326954,8.52942688\N,0,-0.68974829,-1.53599013,7.612313
 68\\Version=AS64L-G09RevD.01\HF=-1724.761477\RMSD=5.149e-09\Dipole=1.5
 739128,-0.7775312,-0.5624067\Quadrupole=8.4214886,13.5576031,-21.97909
 17,2.0209118,34.3896369,-27.5990995\PG=C01 [X(C8N4S3)]\\@


 ...THOSE SCIENCES ARE VAIN AND FULL OF ERRORS WHICH 
 ARE NOT BORN FROM EXPERIMENT, THE MOTHER OF CERTAINTY...

                          -- LEONARDO DA VINCI, 1452-1519
 Job cpu time:       0 days  1 hours 36 minutes 53.7 seconds.
 File lengths (MBytes):  RWF=     58 Int=      0 D2E=      0 Chk=      6 Scr=      1
 Normal termination of Gaussian 09 at Sat Jan 19 10:46:47 2019.
