 Entering Gaussian System, Link 0=/data/szalewicgrp/connornm/opt/Gaussian/g09-M05-par/g09/g09
 AtFile(1): blind-aug.gbs
 Initial command:
 /data/szalewicgrp/connornm/opt/Gaussian/g09-M05-par/g09/l1.exe "/scratch/local/Gau-24194.inp" -scrdir="/scratch/local/"
 Entering Link 1 = /data/szalewicgrp/connornm/opt/Gaussian/g09-M05-par/g09/l1.exe PID=     24195.
  
 Copyright (c) 1988,1990,1992,1993,1995,1998,2003,2009,2013,
            Gaussian, Inc.  All Rights Reserved.
  
 This is part of the Gaussian(R) 09 program.  It is based on
 the Gaussian(R) 03 system (copyright 2003, Gaussian, Inc.),
 the Gaussian(R) 98 system (copyright 1998, Gaussian, Inc.),
 the Gaussian(R) 94 system (copyright 1995, Gaussian, Inc.),
 the Gaussian 92(TM) system (copyright 1992, Gaussian, Inc.),
 the Gaussian 90(TM) system (copyright 1990, Gaussian, Inc.),
 the Gaussian 88(TM) system (copyright 1988, Gaussian, Inc.),
 the Gaussian 86(TM) system (copyright 1986, Carnegie Mellon
 University), and the Gaussian 82(TM) system (copyright 1983,
 Carnegie Mellon University). Gaussian is a federally registered
 trademark of Gaussian, Inc.
  
 This software contains proprietary and confidential information,
 including trade secrets, belonging to Gaussian, Inc.
  
 This software is provided under written license and may be
 used, copied, transmitted, or stored only in accord with that
 written license.
  
 The following legend is applicable only to US Government
 contracts under FAR:
  
                    RESTRICTED RIGHTS LEGEND
  
 Use, reproduction and disclosure by the US Government is
 subject to restrictions as set forth in subparagraphs (a)
 and (c) of the Commercial Computer Software - Restricted
 Rights clause in FAR 52.227-19.
  
 Gaussian, Inc.
 340 Quinnipiac St., Bldg. 40, Wallingford CT 06492
  
  
 ---------------------------------------------------------------
 Warning -- This program may not be used in any manner that
 competes with the business of Gaussian, Inc. or will provide
 assistance to any competitor of Gaussian, Inc.  The licensee
 of this program is prohibited from giving any competitor of
 Gaussian, Inc. access to this program.  By using this program,
 the user acknowledges that Gaussian, Inc. is engaged in the
 business of creating and licensing software in the field of
 computational chemistry and represents and warrants to the
 licensee that it is not a competitor of Gaussian, Inc. and that
 it will not use this program in any manner prohibited above.
 ---------------------------------------------------------------
  

 Cite this work as:
 Gaussian 09, Revision D.01,
 M. J. Frisch, G. W. Trucks, H. B. Schlegel, G. E. Scuseria, 
 M. A. Robb, J. R. Cheeseman, G. Scalmani, V. Barone, B. Mennucci, 
 G. A. Petersson, H. Nakatsuji, M. Caricato, X. Li, H. P. Hratchian, 
 A. F. Izmaylov, J. Bloino, G. Zheng, J. L. Sonnenberg, M. Hada, 
 M. Ehara, K. Toyota, R. Fukuda, J. Hasegawa, M. Ishida, T. Nakajima, 
 Y. Honda, O. Kitao, H. Nakai, T. Vreven, J. A. Montgomery, Jr., 
 J. E. Peralta, F. Ogliaro, M. Bearpark, J. J. Heyd, E. Brothers, 
 K. N. Kudin, V. N. Staroverov, T. Keith, R. Kobayashi, J. Normand, 
 K. Raghavachari, A. Rendell, J. C. Burant, S. S. Iyengar, J. Tomasi, 
 M. Cossi, N. Rega, J. M. Millam, M. Klene, J. E. Knox, J. B. Cross, 
 V. Bakken, C. Adamo, J. Jaramillo, R. Gomperts, R. E. Stratmann, 
 O. Yazyev, A. J. Austin, R. Cammi, C. Pomelli, J. W. Ochterski, 
 R. L. Martin, K. Morokuma, V. G. Zakrzewski, G. A. Voth, 
 P. Salvador, J. J. Dannenberg, S. Dapprich, A. D. Daniels, 
 O. Farkas, J. B. Foresman, J. V. Ortiz, J. Cioslowski, 
 and D. J. Fox, Gaussian, Inc., Wallingford CT, 2013.
 
 ******************************************
 Gaussian 09:  AS64L-G09RevD.01 24-Apr-2013
                19-Jan-2019 
 ******************************************
 %Chk=BLIND00506_mB
 %Mem=1GB
 %NProcShared=48
 Will use up to   48 processors via shared memory.
 ---------------------------------------------
 #T M05/Gen test Massage SCF=(fermi,maxcyc=60)
 ---------------------------------------------
 -------
 M05 opt
 -------
 Symbolic Z-matrix:
 Charge =  0 Multiplicity = 1
 6                    -0.47133   0.88732   5.5081 
 6                    -1.24769  -0.03018   4.74567 
 16                    0.71919   0.4418    6.72163 
 16                   -1.11442  -1.79081   4.87605 
 6                     1.32708  -1.07561   6.03458 
 6                     0.59706  -1.95954   5.30424 
 6                    -0.84629   2.17976   5.201 
 7                    -2.13674   0.47048   3.92299 
 16                   -2.12587   2.13144   4.03259 
 6                     2.69108  -1.3302    6.35981 
 7                     3.79732  -1.50544   6.67083 
 6                     1.17166  -3.17816   4.83656 
 7                     1.58964  -4.1954    4.46045 
 6                    -0.3421    3.39135   5.73297 
 7                     0.05337   4.39519   6.16542 
 
                    Distance matrix (angstroms):
                    1          2          3          4          5
     1  C    0.000000
     2  C    1.423315   0.000000
     3  S    1.757418   2.827694   0.000000
     4  S    2.825849   1.770477   3.428253   0.000000
     5  C    2.713774   3.063280   1.773167   2.795470   0.000000
     6  C    3.047557   2.727187   2.791121   1.772288   1.359281
     7  C    1.380327   2.291783   2.789903   3.992857   4.001979
     8  N    2.336642   1.310672   3.998700   2.658358   4.341342
     9  S    2.542129   2.439721   4.263822   4.137445   5.120151
    10  C    3.955208   4.450782   2.675676   4.110426   1.425163
    11  N    5.029770   5.597745   3.642685   5.237162   2.586817
    12  C    4.436049   3.971317   4.106384   2.674416   2.424897
    13  N    5.583831   5.047859   5.232040   3.642352   3.504263
    14  C    2.517432   3.674472   3.286888   5.309014   4.778168
    15  N    3.607292   4.826214   4.047461   6.425950   5.618639
                    6          7          8          9         10
     6  C    0.000000
     7  C    4.384939   0.000000
     8  N    3.909794   2.494036   0.000000
     9  S    5.076167   1.733444   1.664607   0.000000
    10  C    2.428007   5.116215   5.699860   6.371958   0.000000
    11  N    3.509330   6.107712   6.831389   7.434461   1.162408
    12  C    1.426163   5.736923   5.009263   6.301738   2.836178
    13  N    2.587713   6.864751   5.995430   7.349618   3.609722
    14  C    5.449573   1.416040   3.876636   2.767765   5.646781
    15  N    6.435818   2.578302   5.022796   3.797715   6.306769
                   11         12         13         14         15
    11  N    0.000000
    12  C    3.613393   0.000000
    13  N    4.122555   1.162293   0.000000
    14  C    6.480188   6.800997   7.931563   0.000000
    15  N    7.006418   7.769948   8.891861   1.162367   0.000000
 Symmetry turned off by external request.
 Framework group  C1[X(C8N4S3)]
 Deg. of freedom    39
 Rotational constants (GHZ):      0.7722167      0.3388923      0.2463240
   357 basis functions,   759 primitive gaussians,   387 cartesian basis functions
    62 alpha electrons       62 beta electrons
       nuclear repulsion energy      1166.1400393662 Hartrees.
 IMHF & INEx in M05                  599485                  400514
 NAtoms=   15 NActive=   15 NUniq=   15 SFac= 1.00D+00 NAtFMM=   60 NAOKFM=F Big=F
 PrsmSu:  requested number of processors reduced to:  34 ShMem   1 Linda.
 ExpMin= 3.99D-02 ExpMax= 1.11D+05 ExpMxC= 1.07D+03 IAcc=3 IRadAn=         5 AccDes= 0.00D+00
 Harris functional with IExCor= 1009 and IRadAn=       5 diagonalized for initial guess.
 HarFok:  IExCor= 1009 AccDes= 0.00D+00 IRadAn=         5 IDoV= 1 UseB2=F ITyADJ=14
 ICtDFT=  3500011 ScaDFX=  1.000000  1.000000  1.000000  1.000000
 FoFCou: FMM=F IPFlag=           0 FMFlag=      100000 FMFlg1=           0
         NFxFlg=           0 DoJE=T BraDBF=F KetDBF=T FulRan=T
         wScrn=  0.000000 ICntrl=     500 IOpCl=  0 I1Cent=   200000004 NGrid=           0
         NMat0=    1 NMatS0=      1 NMatT0=    0 NMatD0=    1 NMtDS0=    0 NMtDT0=    0
 Symmetry not used in FoFCou.
 SCF Done:  E(RM05) =  -1724.76146575     A.U. after   17 cycles
            NFock= 17  Conv=0.51D-08     -V/T= 2.0061

 **********************************************************************

            Population analysis using the SCF density.

 **********************************************************************

 Alpha  occ. eigenvalues --  -90.56430 -90.53634 -90.53181 -15.08622 -15.05416
 Alpha  occ. eigenvalues --  -15.04970 -15.04934 -10.89945 -10.89827 -10.89735
 Alpha  occ. eigenvalues --  -10.88751 -10.87413 -10.84946 -10.84332 -10.84311
 Alpha  occ. eigenvalues --   -8.57525  -8.55034  -8.54609  -6.40063  -6.39712
 Alpha  occ. eigenvalues --   -6.39401  -6.37596  -6.37281  -6.37162  -6.36852
 Alpha  occ. eigenvalues --   -6.36821  -6.36392  -1.20533  -1.12896  -1.12138
 Alpha  occ. eigenvalues --   -1.11338  -1.07643  -1.03801  -0.98824  -0.97396
 Alpha  occ. eigenvalues --   -0.88002  -0.84555  -0.82236  -0.73687  -0.71296
 Alpha  occ. eigenvalues --   -0.67838  -0.64612  -0.59530  -0.57258  -0.55386
 Alpha  occ. eigenvalues --   -0.53384  -0.52647  -0.52242  -0.51890  -0.50883
 Alpha  occ. eigenvalues --   -0.50387  -0.49356  -0.48216  -0.46804  -0.46075
 Alpha  occ. eigenvalues --   -0.45933  -0.45296  -0.43720  -0.43113  -0.39488
 Alpha  occ. eigenvalues --   -0.37627  -0.33119
 Alpha virt. eigenvalues --   -0.09329  -0.08268  -0.02098  -0.01262  -0.00503
 Alpha virt. eigenvalues --   -0.00362   0.00153   0.01254   0.02019   0.02231
 Alpha virt. eigenvalues --    0.02394   0.02957   0.03190   0.04002   0.04275
 Alpha virt. eigenvalues --    0.04485   0.05428   0.06004   0.06301   0.07066
 Alpha virt. eigenvalues --    0.07272   0.07526   0.07707   0.08289   0.08492
 Alpha virt. eigenvalues --    0.09375   0.10089   0.10389   0.10524   0.10812
 Alpha virt. eigenvalues --    0.11287   0.11393   0.11977   0.12525   0.13228
 Alpha virt. eigenvalues --    0.13490   0.13934   0.14453   0.15077   0.15193
 Alpha virt. eigenvalues --    0.15903   0.16275   0.16678   0.16812   0.17188
 Alpha virt. eigenvalues --    0.17360   0.17842   0.18615   0.19053   0.19564
 Alpha virt. eigenvalues --    0.19862   0.20241   0.20683   0.20939   0.21270
 Alpha virt. eigenvalues --    0.21886   0.22213   0.22585   0.22823   0.23616
 Alpha virt. eigenvalues --    0.23750   0.24113   0.24371   0.24705   0.25261
 Alpha virt. eigenvalues --    0.25694   0.25854   0.26219   0.26622   0.26744
 Alpha virt. eigenvalues --    0.27069   0.28334   0.29190   0.29662   0.30368
 Alpha virt. eigenvalues --    0.30712   0.32420   0.33457   0.34153   0.34715
 Alpha virt. eigenvalues --    0.34950   0.35470   0.36118   0.36934   0.37593
 Alpha virt. eigenvalues --    0.38149   0.39578   0.40728   0.41169   0.42051
 Alpha virt. eigenvalues --    0.42119   0.43483   0.44138   0.45736   0.45988
 Alpha virt. eigenvalues --    0.46959   0.48544   0.49576   0.50231   0.50589
 Alpha virt. eigenvalues --    0.51527   0.51855   0.53528   0.54166   0.54424
 Alpha virt. eigenvalues --    0.54698   0.55467   0.55732   0.55838   0.56455
 Alpha virt. eigenvalues --    0.57771   0.58141   0.58558   0.59217   0.60314
 Alpha virt. eigenvalues --    0.60553   0.61100   0.61587   0.62105   0.62708
 Alpha virt. eigenvalues --    0.63714   0.64717   0.64952   0.66005   0.66554
 Alpha virt. eigenvalues --    0.67690   0.68186   0.68806   0.70107   0.70415
 Alpha virt. eigenvalues --    0.71049   0.72865   0.73467   0.73857   0.75372
 Alpha virt. eigenvalues --    0.75569   0.76457   0.77062   0.77549   0.77843
 Alpha virt. eigenvalues --    0.78246   0.79255   0.79761   0.79883   0.81107
 Alpha virt. eigenvalues --    0.81537   0.82547   0.83277   0.83956   0.84872
 Alpha virt. eigenvalues --    0.85699   0.85939   0.87124   0.87253   0.88404
 Alpha virt. eigenvalues --    0.88459   0.89344   0.89669   0.89829   0.90729
 Alpha virt. eigenvalues --    0.91170   0.91721   0.92831   0.93720   0.94365
 Alpha virt. eigenvalues --    0.95432   0.95568   0.97324   0.98742   0.99312
 Alpha virt. eigenvalues --    0.99847   1.01205   1.02848   1.03576   1.04750
 Alpha virt. eigenvalues --    1.05759   1.06748   1.08040   1.08543   1.09638
 Alpha virt. eigenvalues --    1.10233   1.11401   1.13198   1.13608   1.14403
 Alpha virt. eigenvalues --    1.15323   1.17101   1.18344   1.20286   1.20631
 Alpha virt. eigenvalues --    1.21609   1.22699   1.23936   1.24224   1.26557
 Alpha virt. eigenvalues --    1.27346   1.29758   1.30250   1.32272   1.34127
 Alpha virt. eigenvalues --    1.37310   1.40081   1.40259   1.41566   1.42731
 Alpha virt. eigenvalues --    1.43616   1.45023   1.46462   1.47274   1.49371
 Alpha virt. eigenvalues --    1.49822   1.50475   1.51640   1.51870   1.52332
 Alpha virt. eigenvalues --    1.53714   1.54193   1.55429   1.56136   1.56449
 Alpha virt. eigenvalues --    1.56787   1.58487   1.59723   1.60389   1.60516
 Alpha virt. eigenvalues --    1.62130   1.63282   1.64923   1.66028   1.67550
 Alpha virt. eigenvalues --    1.68610   1.69175   1.70468   1.71326   1.74153
 Alpha virt. eigenvalues --    1.76824   1.77080   1.79016   1.79378   1.81041
 Alpha virt. eigenvalues --    1.82958   1.85919   1.88146   1.89700   1.90608
 Alpha virt. eigenvalues --    1.91368   1.94485   1.95009   1.97395   2.00539
 Alpha virt. eigenvalues --    2.00828   2.05448   2.07036   2.08349   2.08473
 Alpha virt. eigenvalues --    2.10894   2.13938   2.18607   2.20234   2.24594
 Alpha virt. eigenvalues --    2.27648   2.30686   2.37027   2.37401   2.38002
 Alpha virt. eigenvalues --    2.38280   2.39369   2.39930   2.40470   2.42150
 Alpha virt. eigenvalues --    2.42561   2.43755   2.45057   2.51019   2.54997
 Alpha virt. eigenvalues --    2.61156   2.64120   2.68329   2.71898   2.73264
 Alpha virt. eigenvalues --    2.76309   2.78780   2.81840   2.94681   2.99730
 Alpha virt. eigenvalues --    3.01876   3.09942   3.11449   3.15939   3.17850
 Alpha virt. eigenvalues --    3.24292   3.27127   3.35292   3.59305   3.74892
          Condensed to atoms (all electrons):
 Mulliken charges:
               1
     1  C    0.619392
     2  C   -0.108850
     3  S    0.374482
     4  S    0.297005
     5  C    1.040003
     6  C    1.132198
     7  C    0.786763
     8  N   -1.083323
     9  S    0.557442
    10  C   -1.130469
    11  N   -0.167997
    12  C   -1.100194
    13  N   -0.180352
    14  C   -0.853158
    15  N   -0.182943
 Sum of Mulliken charges =  -0.00000
 Mulliken charges with hydrogens summed into heavy atoms:
               1
     1  C    0.619392
     2  C   -0.108850
     3  S    0.374482
     4  S    0.297005
     5  C    1.040003
     6  C    1.132198
     7  C    0.786763
     8  N   -1.083323
     9  S    0.557442
    10  C   -1.130469
    11  N   -0.167997
    12  C   -1.100194
    13  N   -0.180352
    14  C   -0.853158
    15  N   -0.182943
 Electronic spatial extent (au):  <R**2>=          16599.1003
 Charge=             -0.0000 electrons
 Dipole moment (field-independent basis, Debye):
    X=             -4.3873    Y=              1.5611    Z=             -0.5132  Tot=              4.6849

 Test job not archived.
 1\1\GINC-CHIMERA-NODE21\SP\RM05\Gen\C8N4S3\CONNORNM\19-Jan-2019\0\\#T 
 M05/Gen test Massage SCF=(fermi,maxcyc=60)\\M05 opt\\0,1\C,0,-0.471334
 21,0.88731742,5.50809551\C,0,-1.24769399,-0.03017787,4.74566877\S,0,0.
 71919483,0.44180313,6.72163342\S,0,-1.11442392,-1.79081108,4.8760457\C
 ,0,1.32708153,-1.07561166,6.03457579\C,0,0.59706305,-1.95953585,5.3042
 3676\C,0,-0.84629348,2.17975801,5.20100255\N,0,-2.13674247,0.47047606,
 3.92299115\S,0,-2.12586706,2.1314355,4.03259211\C,0,2.69108221,-1.3301
 9758,6.35981078\N,0,3.7973166,-1.50543543,6.67082558\C,0,1.17166455,-3
 .17816212,4.83655624\N,0,1.58964364,-4.1953966,4.46045304\C,0,-0.34209
 662,3.39135247,5.73297327\N,0,0.05337438,4.39518817,6.16542267\\Versio
 n=AS64L-G09RevD.01\HF=-1724.7614658\RMSD=5.131e-09\Dipole=-1.7260843,0
 .6142032,-0.201892\Quadrupole=1.3329322,-7.4754194,6.1424871,3.850012,
 -19.7003903,-0.1727365\PG=C01 [X(C8N4S3)]\\@


 ONE THORN OF EXPERIENCE IS WORTH A WHOLE WILDERNESS OF
 WARNING....  LOWELL - AMONG MY BOOKS
 Job cpu time:       0 days  1 hours 37 minutes 31.9 seconds.
 File lengths (MBytes):  RWF=     58 Int=      0 D2E=      0 Chk=      6 Scr=      1
 Normal termination of Gaussian 09 at Sat Jan 19 11:08:20 2019.
