 Entering Gaussian System, Link 0=/data/szalewicgrp/connornm/opt/Gaussian/g09-M05-par/g09/g09
 AtFile(1): blind-aug.gbs
 Initial command:
 /data/szalewicgrp/connornm/opt/Gaussian/g09-M05-par/g09/l1.exe "/scratch/local/Gau-3603.inp" -scrdir="/scratch/local/"
 Entering Link 1 = /data/szalewicgrp/connornm/opt/Gaussian/g09-M05-par/g09/l1.exe PID=      3604.
  
 Copyright (c) 1988,1990,1992,1993,1995,1998,2003,2009,2013,
            Gaussian, Inc.  All Rights Reserved.
  
 This is part of the Gaussian(R) 09 program.  It is based on
 the Gaussian(R) 03 system (copyright 2003, Gaussian, Inc.),
 the Gaussian(R) 98 system (copyright 1998, Gaussian, Inc.),
 the Gaussian(R) 94 system (copyright 1995, Gaussian, Inc.),
 the Gaussian 92(TM) system (copyright 1992, Gaussian, Inc.),
 the Gaussian 90(TM) system (copyright 1990, Gaussian, Inc.),
 the Gaussian 88(TM) system (copyright 1988, Gaussian, Inc.),
 the Gaussian 86(TM) system (copyright 1986, Carnegie Mellon
 University), and the Gaussian 82(TM) system (copyright 1983,
 Carnegie Mellon University). Gaussian is a federally registered
 trademark of Gaussian, Inc.
  
 This software contains proprietary and confidential information,
 including trade secrets, belonging to Gaussian, Inc.
  
 This software is provided under written license and may be
 used, copied, transmitted, or stored only in accord with that
 written license.
  
 The following legend is applicable only to US Government
 contracts under FAR:
  
                    RESTRICTED RIGHTS LEGEND
  
 Use, reproduction and disclosure by the US Government is
 subject to restrictions as set forth in subparagraphs (a)
 and (c) of the Commercial Computer Software - Restricted
 Rights clause in FAR 52.227-19.
  
 Gaussian, Inc.
 340 Quinnipiac St., Bldg. 40, Wallingford CT 06492
  
  
 ---------------------------------------------------------------
 Warning -- This program may not be used in any manner that
 competes with the business of Gaussian, Inc. or will provide
 assistance to any competitor of Gaussian, Inc.  The licensee
 of this program is prohibited from giving any competitor of
 Gaussian, Inc. access to this program.  By using this program,
 the user acknowledges that Gaussian, Inc. is engaged in the
 business of creating and licensing software in the field of
 computational chemistry and represents and warrants to the
 licensee that it is not a competitor of Gaussian, Inc. and that
 it will not use this program in any manner prohibited above.
 ---------------------------------------------------------------
  

 Cite this work as:
 Gaussian 09, Revision D.01,
 M. J. Frisch, G. W. Trucks, H. B. Schlegel, G. E. Scuseria, 
 M. A. Robb, J. R. Cheeseman, G. Scalmani, V. Barone, B. Mennucci, 
 G. A. Petersson, H. Nakatsuji, M. Caricato, X. Li, H. P. Hratchian, 
 A. F. Izmaylov, J. Bloino, G. Zheng, J. L. Sonnenberg, M. Hada, 
 M. Ehara, K. Toyota, R. Fukuda, J. Hasegawa, M. Ishida, T. Nakajima, 
 Y. Honda, O. Kitao, H. Nakai, T. Vreven, J. A. Montgomery, Jr., 
 J. E. Peralta, F. Ogliaro, M. Bearpark, J. J. Heyd, E. Brothers, 
 K. N. Kudin, V. N. Staroverov, T. Keith, R. Kobayashi, J. Normand, 
 K. Raghavachari, A. Rendell, J. C. Burant, S. S. Iyengar, J. Tomasi, 
 M. Cossi, N. Rega, J. M. Millam, M. Klene, J. E. Knox, J. B. Cross, 
 V. Bakken, C. Adamo, J. Jaramillo, R. Gomperts, R. E. Stratmann, 
 O. Yazyev, A. J. Austin, R. Cammi, C. Pomelli, J. W. Ochterski, 
 R. L. Martin, K. Morokuma, V. G. Zakrzewski, G. A. Voth, 
 P. Salvador, J. J. Dannenberg, S. Dapprich, A. D. Daniels, 
 O. Farkas, J. B. Foresman, J. V. Ortiz, J. Cioslowski, 
 and D. J. Fox, Gaussian, Inc., Wallingford CT, 2013.
 
 ******************************************
 Gaussian 09:  AS64L-G09RevD.01 24-Apr-2013
                19-Jan-2019 
 ******************************************
 %Chk=BLIND02304_mA
 %Mem=1GB
 %NProcShared=48
 Will use up to   48 processors via shared memory.
 ---------------------------------------------
 #T M05/Gen test Massage SCF=(fermi,maxcyc=60)
 ---------------------------------------------
 -------
 M05 opt
 -------
 Symbolic Z-matrix:
 Charge =  0 Multiplicity = 1
 6                     0.44443   0.89871  -0.18949 
 6                     0.5164   -0.01587  -1.27769 
 16                    0.40961   0.44999   1.50932 
 16                    0.55065  -1.77644  -1.09377 
 6                    -0.46599  -1.0892    1.41796 
 6                    -0.40694  -1.97059   0.38486 
 6                     0.47833   2.193    -0.66801 
 7                     0.59516   0.48844  -2.48489 
 16                    0.62115   2.15042  -2.39503 
 6                    -1.23712  -1.36427   2.58449 
 7                    -1.83113  -1.55539   3.56522 
 6                    -1.11616  -3.20701   0.43192 
 7                    -1.65331  -4.23771   0.43968 
 6                     0.44158   3.40309   0.06649 
 7                     0.4218    4.40598   0.6538 
 
                    Distance matrix (angstroms):
                    1          2          3          4          5
     1  C    0.000000
     2  C    1.423315   0.000000
     3  S    1.757418   2.827694   0.000000
     4  S    2.825849   1.770477   3.428253   0.000000
     5  C    2.713774   3.063280   1.773167   2.795470   0.000000
     6  C    3.047557   2.727187   2.791121   1.772288   1.359281
     7  C    1.380327   2.291783   2.789903   3.992857   4.001979
     8  N    2.336642   1.310672   3.998700   2.658358   4.341342
     9  S    2.542129   2.439721   4.263822   4.137445   5.120151
    10  C    3.955208   4.450782   2.675676   4.110426   1.425163
    11  N    5.029770   5.597745   3.642685   5.237162   2.586817
    12  C    4.436049   3.971317   4.106384   2.674416   2.424897
    13  N    5.583831   5.047859   5.232040   3.642352   3.504263
    14  C    2.517432   3.674472   3.286888   5.309014   4.778168
    15  N    3.607292   4.826214   4.047461   6.425950   5.618639
                    6          7          8          9         10
     6  C    0.000000
     7  C    4.384939   0.000000
     8  N    3.909794   2.494036   0.000000
     9  S    5.076167   1.733444   1.664607   0.000000
    10  C    2.428007   5.116215   5.699860   6.371958   0.000000
    11  N    3.509330   6.107712   6.831389   7.434461   1.162408
    12  C    1.426163   5.736923   5.009263   6.301738   2.836178
    13  N    2.587713   6.864751   5.995430   7.349618   3.609722
    14  C    5.449573   1.416040   3.876636   2.767765   5.646781
    15  N    6.435818   2.578302   5.022796   3.797715   6.306769
                   11         12         13         14         15
    11  N    0.000000
    12  C    3.613393   0.000000
    13  N    4.122555   1.162293   0.000000
    14  C    6.480188   6.800997   7.931563   0.000000
    15  N    7.006418   7.769948   8.891861   1.162367   0.000000
 Symmetry turned off by external request.
 Framework group  C1[X(C8N4S3)]
 Deg. of freedom    39
 Rotational constants (GHZ):      0.7722167      0.3388923      0.2463240
   357 basis functions,   759 primitive gaussians,   387 cartesian basis functions
    62 alpha electrons       62 beta electrons
       nuclear repulsion energy      1166.1400398102 Hartrees.
 IMHF & INEx in M05                  599485                  400514
 NAtoms=   15 NActive=   15 NUniq=   15 SFac= 1.00D+00 NAtFMM=   60 NAOKFM=F Big=F
 PrsmSu:  requested number of processors reduced to:  34 ShMem   1 Linda.
 ExpMin= 3.99D-02 ExpMax= 1.11D+05 ExpMxC= 1.07D+03 IAcc=3 IRadAn=         5 AccDes= 0.00D+00
 Harris functional with IExCor= 1009 and IRadAn=       5 diagonalized for initial guess.
 HarFok:  IExCor= 1009 AccDes= 0.00D+00 IRadAn=         5 IDoV= 1 UseB2=F ITyADJ=14
 ICtDFT=  3500011 ScaDFX=  1.000000  1.000000  1.000000  1.000000
 FoFCou: FMM=F IPFlag=           0 FMFlag=      100000 FMFlg1=           0
         NFxFlg=           0 DoJE=T BraDBF=F KetDBF=T FulRan=T
         wScrn=  0.000000 ICntrl=     500 IOpCl=  0 I1Cent=   200000004 NGrid=           0
         NMat0=    1 NMatS0=      1 NMatT0=    0 NMatD0=    1 NMtDS0=    0 NMtDT0=    0
 Symmetry not used in FoFCou.
 SCF Done:  E(RM05) =  -1724.76149343     A.U. after   17 cycles
            NFock= 17  Conv=0.51D-08     -V/T= 2.0061

 **********************************************************************

            Population analysis using the SCF density.

 **********************************************************************

 Alpha  occ. eigenvalues --  -90.56430 -90.53635 -90.53182 -15.08623 -15.05417
 Alpha  occ. eigenvalues --  -15.04968 -15.04934 -10.89945 -10.89826 -10.89737
 Alpha  occ. eigenvalues --  -10.88752 -10.87414 -10.84947 -10.84331 -10.84310
 Alpha  occ. eigenvalues --   -8.57526  -8.55035  -8.54609  -6.40063  -6.39713
 Alpha  occ. eigenvalues --   -6.39401  -6.37596  -6.37282  -6.37162  -6.36853
 Alpha  occ. eigenvalues --   -6.36821  -6.36392  -1.20534  -1.12895  -1.12139
 Alpha  occ. eigenvalues --   -1.11337  -1.07643  -1.03801  -0.98824  -0.97396
 Alpha  occ. eigenvalues --   -0.88003  -0.84555  -0.82236  -0.73686  -0.71296
 Alpha  occ. eigenvalues --   -0.67838  -0.64612  -0.59531  -0.57258  -0.55386
 Alpha  occ. eigenvalues --   -0.53385  -0.52648  -0.52242  -0.51890  -0.50883
 Alpha  occ. eigenvalues --   -0.50387  -0.49357  -0.48215  -0.46805  -0.46074
 Alpha  occ. eigenvalues --   -0.45933  -0.45296  -0.43720  -0.43113  -0.39488
 Alpha  occ. eigenvalues --   -0.37627  -0.33120
 Alpha virt. eigenvalues --   -0.09329  -0.08269  -0.02098  -0.01264  -0.00504
 Alpha virt. eigenvalues --   -0.00363   0.00153   0.01254   0.02020   0.02228
 Alpha virt. eigenvalues --    0.02395   0.02956   0.03186   0.04003   0.04276
 Alpha virt. eigenvalues --    0.04487   0.05428   0.06007   0.06299   0.07069
 Alpha virt. eigenvalues --    0.07270   0.07525   0.07707   0.08291   0.08492
 Alpha virt. eigenvalues --    0.09374   0.10094   0.10395   0.10523   0.10813
 Alpha virt. eigenvalues --    0.11287   0.11391   0.11977   0.12526   0.13227
 Alpha virt. eigenvalues --    0.13488   0.13936   0.14456   0.15075   0.15191
 Alpha virt. eigenvalues --    0.15901   0.16271   0.16678   0.16811   0.17188
 Alpha virt. eigenvalues --    0.17356   0.17840   0.18612   0.19050   0.19563
 Alpha virt. eigenvalues --    0.19857   0.20234   0.20685   0.20948   0.21265
 Alpha virt. eigenvalues --    0.21880   0.22204   0.22584   0.22823   0.23614
 Alpha virt. eigenvalues --    0.23747   0.24112   0.24370   0.24703   0.25259
 Alpha virt. eigenvalues --    0.25695   0.25851   0.26230   0.26621   0.26747
 Alpha virt. eigenvalues --    0.27068   0.28332   0.29195   0.29663   0.30362
 Alpha virt. eigenvalues --    0.30710   0.32418   0.33456   0.34154   0.34715
 Alpha virt. eigenvalues --    0.34950   0.35469   0.36122   0.36938   0.37595
 Alpha virt. eigenvalues --    0.38152   0.39580   0.40728   0.41170   0.42052
 Alpha virt. eigenvalues --    0.42116   0.43486   0.44137   0.45737   0.45983
 Alpha virt. eigenvalues --    0.46960   0.48552   0.49573   0.50230   0.50593
 Alpha virt. eigenvalues --    0.51525   0.51859   0.53528   0.54169   0.54423
 Alpha virt. eigenvalues --    0.54701   0.55468   0.55738   0.55837   0.56452
 Alpha virt. eigenvalues --    0.57772   0.58139   0.58557   0.59215   0.60311
 Alpha virt. eigenvalues --    0.60552   0.61102   0.61588   0.62104   0.62710
 Alpha virt. eigenvalues --    0.63718   0.64717   0.64954   0.66006   0.66559
 Alpha virt. eigenvalues --    0.67685   0.68189   0.68804   0.70107   0.70418
 Alpha virt. eigenvalues --    0.71047   0.72860   0.73468   0.73851   0.75370
 Alpha virt. eigenvalues --    0.75562   0.76456   0.77063   0.77554   0.77844
 Alpha virt. eigenvalues --    0.78245   0.79253   0.79760   0.79884   0.81108
 Alpha virt. eigenvalues --    0.81541   0.82545   0.83273   0.83959   0.84871
 Alpha virt. eigenvalues --    0.85698   0.85941   0.87124   0.87251   0.88400
 Alpha virt. eigenvalues --    0.88458   0.89345   0.89666   0.89830   0.90729
 Alpha virt. eigenvalues --    0.91170   0.91724   0.92829   0.93720   0.94368
 Alpha virt. eigenvalues --    0.95434   0.95563   0.97326   0.98744   0.99314
 Alpha virt. eigenvalues --    0.99847   1.01205   1.02846   1.03573   1.04752
 Alpha virt. eigenvalues --    1.05757   1.06746   1.08038   1.08542   1.09633
 Alpha virt. eigenvalues --    1.10232   1.11403   1.13199   1.13607   1.14405
 Alpha virt. eigenvalues --    1.15325   1.17100   1.18346   1.20284   1.20631
 Alpha virt. eigenvalues --    1.21611   1.22703   1.23938   1.24220   1.26563
 Alpha virt. eigenvalues --    1.27346   1.29758   1.30249   1.32270   1.34126
 Alpha virt. eigenvalues --    1.37312   1.40083   1.40255   1.41566   1.42729
 Alpha virt. eigenvalues --    1.43615   1.45022   1.46464   1.47273   1.49369
 Alpha virt. eigenvalues --    1.49820   1.50474   1.51640   1.51867   1.52333
 Alpha virt. eigenvalues --    1.53717   1.54192   1.55431   1.56141   1.56451
 Alpha virt. eigenvalues --    1.56791   1.58488   1.59728   1.60387   1.60517
 Alpha virt. eigenvalues --    1.62128   1.63279   1.64922   1.66027   1.67545
 Alpha virt. eigenvalues --    1.68615   1.69175   1.70472   1.71323   1.74153
 Alpha virt. eigenvalues --    1.76824   1.77079   1.79016   1.79376   1.81042
 Alpha virt. eigenvalues --    1.82960   1.85919   1.88150   1.89706   1.90608
 Alpha virt. eigenvalues --    1.91371   1.94484   1.95005   1.97392   2.00539
 Alpha virt. eigenvalues --    2.00827   2.05449   2.07036   2.08351   2.08470
 Alpha virt. eigenvalues --    2.10896   2.13937   2.18608   2.20234   2.24592
 Alpha virt. eigenvalues --    2.27643   2.30686   2.37027   2.37401   2.38001
 Alpha virt. eigenvalues --    2.38279   2.39370   2.39930   2.40470   2.42150
 Alpha virt. eigenvalues --    2.42560   2.43755   2.45057   2.51015   2.54995
 Alpha virt. eigenvalues --    2.61154   2.64128   2.68330   2.71900   2.73263
 Alpha virt. eigenvalues --    2.76309   2.78780   2.81840   2.94679   2.99731
 Alpha virt. eigenvalues --    3.01878   3.09942   3.11449   3.15938   3.17850
 Alpha virt. eigenvalues --    3.24295   3.27129   3.35292   3.59303   3.74888
          Condensed to atoms (all electrons):
 Mulliken charges:
               1
     1  C    0.618520
     2  C   -0.107803
     3  S    0.374980
     4  S    0.296964
     5  C    1.038968
     6  C    1.131693
     7  C    0.787117
     8  N   -1.083605
     9  S    0.557270
    10  C   -1.129417
    11  N   -0.168097
    12  C   -1.099871
    13  N   -0.180488
    14  C   -0.853255
    15  N   -0.182975
 Sum of Mulliken charges =  -0.00000
 Mulliken charges with hydrogens summed into heavy atoms:
               1
     1  C    0.618520
     2  C   -0.107803
     3  S    0.374980
     4  S    0.296964
     5  C    1.038968
     6  C    1.131693
     7  C    0.787117
     8  N   -1.083605
     9  S    0.557270
    10  C   -1.129417
    11  N   -0.168097
    12  C   -1.099871
    13  N   -0.180488
    14  C   -0.853255
    15  N   -0.182975
 Electronic spatial extent (au):  <R**2>=           4013.7182
 Charge=             -0.0000 electrons
 Dipole moment (field-independent basis, Debye):
    X=              2.8246    Y=              1.6367    Z=             -3.3613  Tot=              4.6857

 Test job not archived.
 1\1\GINC-CHIMERA-NODE27\SP\RM05\Gen\C8N4S3\CONNORNM\19-Jan-2019\0\\#T 
 M05/Gen test Massage SCF=(fermi,maxcyc=60)\\M05 opt\\0,1\C,0,0.4444315
 ,0.89871215,-0.18948885\C,0,0.51639786,-0.01587148,-1.27769117\S,0,0.4
 0961208,0.44998613,1.50931932\S,0,0.55064546,-1.77643622,-1.09376942\C
 ,0,-0.46599177,-1.0892001,1.4179643\C,0,-0.40693798,-1.97059081,0.3848
 5873\C,0,0.47832712,2.19299771,-0.66800654\N,0,0.59515942,0.48844246,-
 2.48488796\S,0,0.62114688,2.15041942,-2.39503178\C,0,-1.23711937,-1.36
 426825,2.58449308\N,0,-1.83113008,-1.55538518,3.56521659\C,0,-1.116164
 63,-3.20700708,0.43191533\N,0,-1.65330867,-4.23770691,0.43967865\C,0,0
 .44158349,3.4030945,0.06648928\N,0,0.42179527,4.40597801,0.65379586\\V
 ersion=AS64L-G09RevD.01\HF=-1724.7614934\RMSD=5.132e-09\Dipole=1.11127
 86,0.6439321,-1.3224326\Quadrupole=6.7392714,-9.1664264,2.4271551,-6.7
 741763,4.6340309,-1.937072\PG=C01 [X(C8N4S3)]\\@


 A great many people think they are thinking when they
 are merely rearranging their prejudices.
                               -- William James
 Job cpu time:       0 days  1 hours 51 minutes 32.9 seconds.
 File lengths (MBytes):  RWF=     58 Int=      0 D2E=      0 Chk=      6 Scr=      1
 Normal termination of Gaussian 09 at Sat Jan 19 10:45:54 2019.
