 Entering Gaussian System, Link 0=/data/szalewicgrp/connornm/opt/Gaussian/g09-M05-par/g09/g09
 AtFile(1): blind-aug.gbs
 Initial command:
 /data/szalewicgrp/connornm/opt/Gaussian/g09-M05-par/g09/l1.exe "/scratch/local/Gau-40257.inp" -scrdir="/scratch/local/"
 Entering Link 1 = /data/szalewicgrp/connornm/opt/Gaussian/g09-M05-par/g09/l1.exe PID=     40258.
  
 Copyright (c) 1988,1990,1992,1993,1995,1998,2003,2009,2013,
            Gaussian, Inc.  All Rights Reserved.
  
 This is part of the Gaussian(R) 09 program.  It is based on
 the Gaussian(R) 03 system (copyright 2003, Gaussian, Inc.),
 the Gaussian(R) 98 system (copyright 1998, Gaussian, Inc.),
 the Gaussian(R) 94 system (copyright 1995, Gaussian, Inc.),
 the Gaussian 92(TM) system (copyright 1992, Gaussian, Inc.),
 the Gaussian 90(TM) system (copyright 1990, Gaussian, Inc.),
 the Gaussian 88(TM) system (copyright 1988, Gaussian, Inc.),
 the Gaussian 86(TM) system (copyright 1986, Carnegie Mellon
 University), and the Gaussian 82(TM) system (copyright 1983,
 Carnegie Mellon University). Gaussian is a federally registered
 trademark of Gaussian, Inc.
  
 This software contains proprietary and confidential information,
 including trade secrets, belonging to Gaussian, Inc.
  
 This software is provided under written license and may be
 used, copied, transmitted, or stored only in accord with that
 written license.
  
 The following legend is applicable only to US Government
 contracts under FAR:
  
                    RESTRICTED RIGHTS LEGEND
  
 Use, reproduction and disclosure by the US Government is
 subject to restrictions as set forth in subparagraphs (a)
 and (c) of the Commercial Computer Software - Restricted
 Rights clause in FAR 52.227-19.
  
 Gaussian, Inc.
 340 Quinnipiac St., Bldg. 40, Wallingford CT 06492
  
  
 ---------------------------------------------------------------
 Warning -- This program may not be used in any manner that
 competes with the business of Gaussian, Inc. or will provide
 assistance to any competitor of Gaussian, Inc.  The licensee
 of this program is prohibited from giving any competitor of
 Gaussian, Inc. access to this program.  By using this program,
 the user acknowledges that Gaussian, Inc. is engaged in the
 business of creating and licensing software in the field of
 computational chemistry and represents and warrants to the
 licensee that it is not a competitor of Gaussian, Inc. and that
 it will not use this program in any manner prohibited above.
 ---------------------------------------------------------------
  

 Cite this work as:
 Gaussian 09, Revision D.01,
 M. J. Frisch, G. W. Trucks, H. B. Schlegel, G. E. Scuseria, 
 M. A. Robb, J. R. Cheeseman, G. Scalmani, V. Barone, B. Mennucci, 
 G. A. Petersson, H. Nakatsuji, M. Caricato, X. Li, H. P. Hratchian, 
 A. F. Izmaylov, J. Bloino, G. Zheng, J. L. Sonnenberg, M. Hada, 
 M. Ehara, K. Toyota, R. Fukuda, J. Hasegawa, M. Ishida, T. Nakajima, 
 Y. Honda, O. Kitao, H. Nakai, T. Vreven, J. A. Montgomery, Jr., 
 J. E. Peralta, F. Ogliaro, M. Bearpark, J. J. Heyd, E. Brothers, 
 K. N. Kudin, V. N. Staroverov, T. Keith, R. Kobayashi, J. Normand, 
 K. Raghavachari, A. Rendell, J. C. Burant, S. S. Iyengar, J. Tomasi, 
 M. Cossi, N. Rega, J. M. Millam, M. Klene, J. E. Knox, J. B. Cross, 
 V. Bakken, C. Adamo, J. Jaramillo, R. Gomperts, R. E. Stratmann, 
 O. Yazyev, A. J. Austin, R. Cammi, C. Pomelli, J. W. Ochterski, 
 R. L. Martin, K. Morokuma, V. G. Zakrzewski, G. A. Voth, 
 P. Salvador, J. J. Dannenberg, S. Dapprich, A. D. Daniels, 
 O. Farkas, J. B. Foresman, J. V. Ortiz, J. Cioslowski, 
 and D. J. Fox, Gaussian, Inc., Wallingford CT, 2013.
 
 ******************************************
 Gaussian 09:  AS64L-G09RevD.01 24-Apr-2013
                19-Jan-2019 
 ******************************************
 %Chk=BLIND02415_mA
 %Mem=1GB
 %NProcShared=48
 Will use up to   48 processors via shared memory.
 ---------------------------------------------
 #T M05/Gen test Massage SCF=(fermi,maxcyc=60)
 ---------------------------------------------
 -------
 M05 opt
 -------
 Symbolic Z-matrix:
 Charge =  0 Multiplicity = 1
 6                    -0.36782  -0.88003   0.36245 
 6                    -0.17457   0.11435   1.3623 
 16                   -0.77315  -0.56092  -1.31754 
 16                   -0.28139   1.85614   1.0634 
 6                     0.07326   0.97718  -1.56649 
 6                     0.26548   1.93425  -0.6206 
 6                    -0.25908  -2.13436   0.92825 
 7                     0.06406  -0.2971    2.58362 
 16                    0.04148  -1.961     2.62661 
 6                     0.51798   1.16028  -2.90805 
 7                     0.83998   1.27441  -4.01912 
 6                     0.92042   3.16068  -0.93819 
 7                     1.4221    4.18565  -1.15882 
 6                    -0.3919   -3.39657   0.30027 
 7                    -0.50683  -4.44099  -0.1968 
 
                    Distance matrix (angstroms):
                    1          2          3          4          5
     1  C    0.000000
     2  C    1.423315   0.000000
     3  S    1.757418   2.827694   0.000000
     4  S    2.825849   1.770477   3.428253   0.000000
     5  C    2.713774   3.063280   1.773167   2.795470   0.000000
     6  C    3.047557   2.727187   2.791121   1.772288   1.359281
     7  C    1.380327   2.291783   2.789903   3.992857   4.001979
     8  N    2.336642   1.310672   3.998700   2.658358   4.341342
     9  S    2.542129   2.439721   4.263822   4.137445   5.120151
    10  C    3.955208   4.450782   2.675676   4.110426   1.425163
    11  N    5.029770   5.597745   3.642685   5.237162   2.586817
    12  C    4.436049   3.971317   4.106384   2.674416   2.424897
    13  N    5.583831   5.047859   5.232040   3.642352   3.504263
    14  C    2.517432   3.674472   3.286888   5.309014   4.778168
    15  N    3.607292   4.826214   4.047461   6.425950   5.618639
                    6          7          8          9         10
     6  C    0.000000
     7  C    4.384939   0.000000
     8  N    3.909794   2.494036   0.000000
     9  S    5.076167   1.733444   1.664607   0.000000
    10  C    2.428007   5.116215   5.699860   6.371958   0.000000
    11  N    3.509330   6.107712   6.831389   7.434461   1.162408
    12  C    1.426163   5.736923   5.009263   6.301738   2.836178
    13  N    2.587713   6.864751   5.995430   7.349618   3.609722
    14  C    5.449573   1.416040   3.876636   2.767765   5.646781
    15  N    6.435818   2.578302   5.022796   3.797715   6.306769
                   11         12         13         14         15
    11  N    0.000000
    12  C    3.613393   0.000000
    13  N    4.122555   1.162293   0.000000
    14  C    6.480188   6.800997   7.931563   0.000000
    15  N    7.006418   7.769948   8.891861   1.162367   0.000000
 Symmetry turned off by external request.
 Framework group  C1[X(C8N4S3)]
 Deg. of freedom    39
 Rotational constants (GHZ):      0.7722167      0.3388923      0.2463240
   357 basis functions,   759 primitive gaussians,   387 cartesian basis functions
    62 alpha electrons       62 beta electrons
       nuclear repulsion energy      1166.1400401987 Hartrees.
 IMHF & INEx in M05                  599485                  400514
 NAtoms=   15 NActive=   15 NUniq=   15 SFac= 1.00D+00 NAtFMM=   60 NAOKFM=F Big=F
 PrsmSu:  requested number of processors reduced to:  34 ShMem   1 Linda.
 ExpMin= 3.99D-02 ExpMax= 1.11D+05 ExpMxC= 1.07D+03 IAcc=3 IRadAn=         5 AccDes= 0.00D+00
 Harris functional with IExCor= 1009 and IRadAn=       5 diagonalized for initial guess.
 HarFok:  IExCor= 1009 AccDes= 0.00D+00 IRadAn=         5 IDoV= 1 UseB2=F ITyADJ=14
 ICtDFT=  3500011 ScaDFX=  1.000000  1.000000  1.000000  1.000000
 FoFCou: FMM=F IPFlag=           0 FMFlag=      100000 FMFlg1=           0
         NFxFlg=           0 DoJE=T BraDBF=F KetDBF=T FulRan=T
         wScrn=  0.000000 ICntrl=     500 IOpCl=  0 I1Cent=   200000004 NGrid=           0
         NMat0=    1 NMatS0=      1 NMatT0=    0 NMatD0=    1 NMtDS0=    0 NMtDT0=    0
 Symmetry not used in FoFCou.
 SCF Done:  E(RM05) =  -1724.76146942     A.U. after   17 cycles
            NFock= 17  Conv=0.51D-08     -V/T= 2.0061

 **********************************************************************

            Population analysis using the SCF density.

 **********************************************************************

 Alpha  occ. eigenvalues --  -90.56431 -90.53636 -90.53181 -15.08621 -15.05417
 Alpha  occ. eigenvalues --  -15.04969 -15.04934 -10.89944 -10.89826 -10.89736
 Alpha  occ. eigenvalues --  -10.88752 -10.87414 -10.84947 -10.84331 -10.84311
 Alpha  occ. eigenvalues --   -8.57526  -8.55035  -8.54608  -6.40063  -6.39713
 Alpha  occ. eigenvalues --   -6.39401  -6.37597  -6.37283  -6.37162  -6.36852
 Alpha  occ. eigenvalues --   -6.36822  -6.36391  -1.20533  -1.12895  -1.12139
 Alpha  occ. eigenvalues --   -1.11337  -1.07643  -1.03801  -0.98824  -0.97396
 Alpha  occ. eigenvalues --   -0.88002  -0.84555  -0.82236  -0.73686  -0.71296
 Alpha  occ. eigenvalues --   -0.67838  -0.64612  -0.59530  -0.57258  -0.55386
 Alpha  occ. eigenvalues --   -0.53384  -0.52648  -0.52243  -0.51890  -0.50883
 Alpha  occ. eigenvalues --   -0.50387  -0.49356  -0.48215  -0.46805  -0.46074
 Alpha  occ. eigenvalues --   -0.45933  -0.45296  -0.43720  -0.43113  -0.39488
 Alpha  occ. eigenvalues --   -0.37628  -0.33119
 Alpha virt. eigenvalues --   -0.09329  -0.08268  -0.02098  -0.01263  -0.00502
 Alpha virt. eigenvalues --   -0.00361   0.00153   0.01255   0.02020   0.02231
 Alpha virt. eigenvalues --    0.02394   0.02956   0.03189   0.04003   0.04277
 Alpha virt. eigenvalues --    0.04487   0.05427   0.06008   0.06300   0.07068
 Alpha virt. eigenvalues --    0.07270   0.07527   0.07707   0.08291   0.08491
 Alpha virt. eigenvalues --    0.09377   0.10093   0.10393   0.10522   0.10813
 Alpha virt. eigenvalues --    0.11288   0.11395   0.11978   0.12526   0.13227
 Alpha virt. eigenvalues --    0.13493   0.13938   0.14453   0.15074   0.15190
 Alpha virt. eigenvalues --    0.15901   0.16274   0.16680   0.16813   0.17191
 Alpha virt. eigenvalues --    0.17358   0.17841   0.18612   0.19052   0.19563
 Alpha virt. eigenvalues --    0.19864   0.20239   0.20688   0.20945   0.21268
 Alpha virt. eigenvalues --    0.21886   0.22208   0.22579   0.22819   0.23613
 Alpha virt. eigenvalues --    0.23751   0.24116   0.24365   0.24702   0.25259
 Alpha virt. eigenvalues --    0.25695   0.25851   0.26224   0.26621   0.26747
 Alpha virt. eigenvalues --    0.27067   0.28333   0.29194   0.29661   0.30367
 Alpha virt. eigenvalues --    0.30710   0.32417   0.33458   0.34156   0.34712
 Alpha virt. eigenvalues --    0.34948   0.35470   0.36120   0.36937   0.37593
 Alpha virt. eigenvalues --    0.38151   0.39580   0.40727   0.41168   0.42050
 Alpha virt. eigenvalues --    0.42118   0.43485   0.44135   0.45736   0.45986
 Alpha virt. eigenvalues --    0.46965   0.48553   0.49577   0.50233   0.50592
 Alpha virt. eigenvalues --    0.51525   0.51859   0.53532   0.54171   0.54421
 Alpha virt. eigenvalues --    0.54702   0.55469   0.55735   0.55840   0.56449
 Alpha virt. eigenvalues --    0.57769   0.58140   0.58556   0.59216   0.60314
 Alpha virt. eigenvalues --    0.60553   0.61104   0.61588   0.62108   0.62710
 Alpha virt. eigenvalues --    0.63727   0.64720   0.64950   0.66006   0.66558
 Alpha virt. eigenvalues --    0.67688   0.68191   0.68807   0.70106   0.70418
 Alpha virt. eigenvalues --    0.71047   0.72862   0.73466   0.73855   0.75369
 Alpha virt. eigenvalues --    0.75566   0.76456   0.77065   0.77556   0.77844
 Alpha virt. eigenvalues --    0.78247   0.79255   0.79760   0.79879   0.81106
 Alpha virt. eigenvalues --    0.81537   0.82545   0.83274   0.83958   0.84871
 Alpha virt. eigenvalues --    0.85698   0.85940   0.87123   0.87252   0.88406
 Alpha virt. eigenvalues --    0.88459   0.89345   0.89668   0.89832   0.90729
 Alpha virt. eigenvalues --    0.91172   0.91722   0.92827   0.93719   0.94365
 Alpha virt. eigenvalues --    0.95430   0.95561   0.97325   0.98743   0.99313
 Alpha virt. eigenvalues --    0.99849   1.01204   1.02845   1.03575   1.04752
 Alpha virt. eigenvalues --    1.05756   1.06743   1.08036   1.08540   1.09636
 Alpha virt. eigenvalues --    1.10235   1.11399   1.13196   1.13608   1.14402
 Alpha virt. eigenvalues --    1.15323   1.17100   1.18345   1.20285   1.20631
 Alpha virt. eigenvalues --    1.21609   1.22700   1.23935   1.24222   1.26559
 Alpha virt. eigenvalues --    1.27347   1.29759   1.30247   1.32268   1.34127
 Alpha virt. eigenvalues --    1.37314   1.40083   1.40259   1.41567   1.42731
 Alpha virt. eigenvalues --    1.43615   1.45023   1.46466   1.47273   1.49370
 Alpha virt. eigenvalues --    1.49822   1.50472   1.51643   1.51866   1.52331
 Alpha virt. eigenvalues --    1.53715   1.54194   1.55429   1.56137   1.56448
 Alpha virt. eigenvalues --    1.56790   1.58489   1.59726   1.60386   1.60517
 Alpha virt. eigenvalues --    1.62128   1.63279   1.64920   1.66027   1.67548
 Alpha virt. eigenvalues --    1.68615   1.69176   1.70471   1.71323   1.74154
 Alpha virt. eigenvalues --    1.76827   1.77077   1.79019   1.79376   1.81048
 Alpha virt. eigenvalues --    1.82961   1.85922   1.88153   1.89702   1.90609
 Alpha virt. eigenvalues --    1.91373   1.94487   1.95005   1.97393   2.00540
 Alpha virt. eigenvalues --    2.00832   2.05447   2.07037   2.08352   2.08473
 Alpha virt. eigenvalues --    2.10897   2.13939   2.18607   2.20234   2.24593
 Alpha virt. eigenvalues --    2.27644   2.30687   2.37027   2.37401   2.38001
 Alpha virt. eigenvalues --    2.38279   2.39369   2.39931   2.40471   2.42151
 Alpha virt. eigenvalues --    2.42559   2.43757   2.45058   2.51017   2.54996
 Alpha virt. eigenvalues --    2.61155   2.64125   2.68330   2.71898   2.73263
 Alpha virt. eigenvalues --    2.76309   2.78780   2.81841   2.94680   2.99730
 Alpha virt. eigenvalues --    3.01875   3.09942   3.11449   3.15940   3.17850
 Alpha virt. eigenvalues --    3.24296   3.27131   3.35291   3.59306   3.74892
          Condensed to atoms (all electrons):
 Mulliken charges:
               1
     1  C    0.618376
     2  C   -0.107589
     3  S    0.373760
     4  S    0.296716
     5  C    1.040295
     6  C    1.131683
     7  C    0.786900
     8  N   -1.083592
     9  S    0.557672
    10  C   -1.130208
    11  N   -0.168108
    12  C   -1.099674
    13  N   -0.180680
    14  C   -0.852640
    15  N   -0.182911
 Sum of Mulliken charges =  -0.00000
 Mulliken charges with hydrogens summed into heavy atoms:
               1
     1  C    0.618376
     2  C   -0.107589
     3  S    0.373760
     4  S    0.296716
     5  C    1.040295
     6  C    1.131683
     7  C    0.786900
     8  N   -1.083592
     9  S    0.557672
    10  C   -1.130208
    11  N   -0.168108
    12  C   -1.099674
    13  N   -0.180680
    14  C   -0.852640
    15  N   -0.182911
 Electronic spatial extent (au):  <R**2>=           4013.7184
 Charge=             -0.0000 electrons
 Dipole moment (field-independent basis, Debye):
    X=             -1.8513    Y=             -1.3668    Z=              4.0809  Tot=              4.6850

 Test job not archived.
 1\1\GINC-CHIMERA-NODE43\SP\RM05\Gen\C8N4S3\CONNORNM\19-Jan-2019\0\\#T 
 M05/Gen test Massage SCF=(fermi,maxcyc=60)\\M05 opt\\0,1\C,0,-0.367818
 ,-0.88002602,0.36245418\C,0,-0.17457197,0.11435368,1.36229998\S,0,-0.7
 7315004,-0.56091996,-1.317544\S,0,-0.28138701,1.85614485,1.06339798\C,
 0,0.07325519,0.97717865,-1.56648763\C,0,0.26547936,1.93424989,-0.62059
 728\C,0,-0.25908465,-2.13436219,0.92824659\N,0,0.06406245,-0.29709934,
 2.58361896\S,0,0.04148057,-1.96099804,2.62660815\C,0,0.51797676,1.1602
 7962,-2.90804882\N,0,0.83997762,1.2744147,-4.01912112\C,0,0.92041963,3
 .16067984,-0.93818941\N,0,1.42209887,4.18565031,-1.15882396\C,0,-0.391
 89743,-3.39657481,0.30027483\N,0,-0.50683132,-4.44099027,-0.19679905\\
 Version=AS64L-G09RevD.01\HF=-1724.7614694\RMSD=5.125e-09\Dipole=-0.728
 3634,-0.5377211,1.6055483\Quadrupole=8.9518318,-9.3390549,0.387223,-6.
 5289681,3.4678613,0.6200413\PG=C01 [X(C8N4S3)]\\@


 THE PROBLEM WITH THE LADDER OF SUCCESS IS YOU CAN'T
 CLIMB IT WHILE YOU'RE TWIDDLING YOUR THUMBS.
 Job cpu time:       0 days  1 hours 54 minutes  6.0 seconds.
 File lengths (MBytes):  RWF=     58 Int=      0 D2E=      0 Chk=      6 Scr=      1
 Normal termination of Gaussian 09 at Sat Jan 19 10:43:14 2019.
