 Entering Gaussian System, Link 0=/data/szalewicgrp/connornm/opt/Gaussian/g09-M05-par/g09/g09
 AtFile(1): blind-aug.gbs
 Initial command:
 /data/szalewicgrp/connornm/opt/Gaussian/g09-M05-par/g09/l1.exe "/scratch/local/Gau-31463.inp" -scrdir="/scratch/local/"
 Entering Link 1 = /data/szalewicgrp/connornm/opt/Gaussian/g09-M05-par/g09/l1.exe PID=     31464.
  
 Copyright (c) 1988,1990,1992,1993,1995,1998,2003,2009,2013,
            Gaussian, Inc.  All Rights Reserved.
  
 This is part of the Gaussian(R) 09 program.  It is based on
 the Gaussian(R) 03 system (copyright 2003, Gaussian, Inc.),
 the Gaussian(R) 98 system (copyright 1998, Gaussian, Inc.),
 the Gaussian(R) 94 system (copyright 1995, Gaussian, Inc.),
 the Gaussian 92(TM) system (copyright 1992, Gaussian, Inc.),
 the Gaussian 90(TM) system (copyright 1990, Gaussian, Inc.),
 the Gaussian 88(TM) system (copyright 1988, Gaussian, Inc.),
 the Gaussian 86(TM) system (copyright 1986, Carnegie Mellon
 University), and the Gaussian 82(TM) system (copyright 1983,
 Carnegie Mellon University). Gaussian is a federally registered
 trademark of Gaussian, Inc.
  
 This software contains proprietary and confidential information,
 including trade secrets, belonging to Gaussian, Inc.
  
 This software is provided under written license and may be
 used, copied, transmitted, or stored only in accord with that
 written license.
  
 The following legend is applicable only to US Government
 contracts under FAR:
  
                    RESTRICTED RIGHTS LEGEND
  
 Use, reproduction and disclosure by the US Government is
 subject to restrictions as set forth in subparagraphs (a)
 and (c) of the Commercial Computer Software - Restricted
 Rights clause in FAR 52.227-19.
  
 Gaussian, Inc.
 340 Quinnipiac St., Bldg. 40, Wallingford CT 06492
  
  
 ---------------------------------------------------------------
 Warning -- This program may not be used in any manner that
 competes with the business of Gaussian, Inc. or will provide
 assistance to any competitor of Gaussian, Inc.  The licensee
 of this program is prohibited from giving any competitor of
 Gaussian, Inc. access to this program.  By using this program,
 the user acknowledges that Gaussian, Inc. is engaged in the
 business of creating and licensing software in the field of
 computational chemistry and represents and warrants to the
 licensee that it is not a competitor of Gaussian, Inc. and that
 it will not use this program in any manner prohibited above.
 ---------------------------------------------------------------
  

 Cite this work as:
 Gaussian 09, Revision D.01,
 M. J. Frisch, G. W. Trucks, H. B. Schlegel, G. E. Scuseria, 
 M. A. Robb, J. R. Cheeseman, G. Scalmani, V. Barone, B. Mennucci, 
 G. A. Petersson, H. Nakatsuji, M. Caricato, X. Li, H. P. Hratchian, 
 A. F. Izmaylov, J. Bloino, G. Zheng, J. L. Sonnenberg, M. Hada, 
 M. Ehara, K. Toyota, R. Fukuda, J. Hasegawa, M. Ishida, T. Nakajima, 
 Y. Honda, O. Kitao, H. Nakai, T. Vreven, J. A. Montgomery, Jr., 
 J. E. Peralta, F. Ogliaro, M. Bearpark, J. J. Heyd, E. Brothers, 
 K. N. Kudin, V. N. Staroverov, T. Keith, R. Kobayashi, J. Normand, 
 K. Raghavachari, A. Rendell, J. C. Burant, S. S. Iyengar, J. Tomasi, 
 M. Cossi, N. Rega, J. M. Millam, M. Klene, J. E. Knox, J. B. Cross, 
 V. Bakken, C. Adamo, J. Jaramillo, R. Gomperts, R. E. Stratmann, 
 O. Yazyev, A. J. Austin, R. Cammi, C. Pomelli, J. W. Ochterski, 
 R. L. Martin, K. Morokuma, V. G. Zakrzewski, G. A. Voth, 
 P. Salvador, J. J. Dannenberg, S. Dapprich, A. D. Daniels, 
 O. Farkas, J. B. Foresman, J. V. Ortiz, J. Cioslowski, 
 and D. J. Fox, Gaussian, Inc., Wallingford CT, 2013.
 
 ******************************************
 Gaussian 09:  AS64L-G09RevD.01 24-Apr-2013
                19-Jan-2019 
 ******************************************
 %Chk=BLIND02386_mB
 %Mem=1GB
 %NProcShared=48
 Will use up to   48 processors via shared memory.
 ---------------------------------------------
 #T M05/Gen test Massage SCF=(fermi,maxcyc=60)
 ---------------------------------------------
 -------
 M05 opt
 -------
 Symbolic Z-matrix:
 Charge =  0 Multiplicity = 1
 6                    -0.33333   0.93076   7.38206 
 6                    -0.31203   0.01566   6.29213 
 16                   -0.59923   0.49581   9.06392 
 16                   -0.52088  -1.7343    6.46134 
 6                     0.14864  -1.11145   9.10302 
 6                     0.17689  -1.99405   8.06965 
 6                    -0.18484   2.21909   6.90936 
 7                    -0.1608    0.51401   5.08937 
 16                   -0.06182   2.17315   5.18089 
 6                     0.7044   -1.43915   10.37378 
 7                     1.12153  -1.67015   11.43389 
 6                     0.76479  -3.28457   8.22095 
 7                     1.2065   -4.35616   8.30762 
 6                    -0.16147   3.42845   7.64561 
 7                    -0.14928   4.43142   8.23298 
 
                    Distance matrix (angstroms):
                    1          2          3          4          5
     1  C    0.000000
     2  C    1.423315   0.000000
     3  S    1.757418   2.827694   0.000000
     4  S    2.825849   1.770477   3.428253   0.000000
     5  C    2.713774   3.063280   1.773167   2.795470   0.000000
     6  C    3.047557   2.727187   2.791121   1.772288   1.359281
     7  C    1.380327   2.291783   2.789903   3.992857   4.001979
     8  N    2.336642   1.310672   3.998700   2.658358   4.341342
     9  S    2.542129   2.439721   4.263822   4.137445   5.120151
    10  C    3.955208   4.450782   2.675676   4.110426   1.425163
    11  N    5.029770   5.597745   3.642685   5.237162   2.586817
    12  C    4.436049   3.971317   4.106384   2.674416   2.424897
    13  N    5.583831   5.047859   5.232040   3.642352   3.504263
    14  C    2.517432   3.674472   3.286888   5.309014   4.778168
    15  N    3.607292   4.826214   4.047461   6.425950   5.618639
                    6          7          8          9         10
     6  C    0.000000
     7  C    4.384939   0.000000
     8  N    3.909794   2.494036   0.000000
     9  S    5.076167   1.733444   1.664607   0.000000
    10  C    2.428007   5.116215   5.699860   6.371958   0.000000
    11  N    3.509330   6.107712   6.831389   7.434461   1.162408
    12  C    1.426163   5.736923   5.009263   6.301738   2.836178
    13  N    2.587713   6.864751   5.995430   7.349618   3.609722
    14  C    5.449573   1.416040   3.876636   2.767765   5.646781
    15  N    6.435818   2.578302   5.022796   3.797715   6.306769
                   11         12         13         14         15
    11  N    0.000000
    12  C    3.613393   0.000000
    13  N    4.122555   1.162293   0.000000
    14  C    6.480188   6.800997   7.931563   0.000000
    15  N    7.006418   7.769948   8.891861   1.162367   0.000000
 Symmetry turned off by external request.
 Framework group  C1[X(C8N4S3)]
 Deg. of freedom    39
 Rotational constants (GHZ):      0.7722167      0.3388923      0.2463240
   357 basis functions,   759 primitive gaussians,   387 cartesian basis functions
    62 alpha electrons       62 beta electrons
       nuclear repulsion energy      1166.1400400333 Hartrees.
 IMHF & INEx in M05                  599485                  400514
 NAtoms=   15 NActive=   15 NUniq=   15 SFac= 1.00D+00 NAtFMM=   60 NAOKFM=F Big=F
 PrsmSu:  requested number of processors reduced to:  34 ShMem   1 Linda.
 ExpMin= 3.99D-02 ExpMax= 1.11D+05 ExpMxC= 1.07D+03 IAcc=3 IRadAn=         5 AccDes= 0.00D+00
 Harris functional with IExCor= 1009 and IRadAn=       5 diagonalized for initial guess.
 HarFok:  IExCor= 1009 AccDes= 0.00D+00 IRadAn=         5 IDoV= 1 UseB2=F ITyADJ=14
 ICtDFT=  3500011 ScaDFX=  1.000000  1.000000  1.000000  1.000000
 FoFCou: FMM=F IPFlag=           0 FMFlag=      100000 FMFlg1=           0
         NFxFlg=           0 DoJE=T BraDBF=F KetDBF=T FulRan=T
         wScrn=  0.000000 ICntrl=     500 IOpCl=  0 I1Cent=   200000004 NGrid=           0
         NMat0=    1 NMatS0=      1 NMatT0=    0 NMatD0=    1 NMtDS0=    0 NMtDT0=    0
 Symmetry not used in FoFCou.
 SCF Done:  E(RM05) =  -1724.76148409     A.U. after   17 cycles
            NFock= 17  Conv=0.52D-08     -V/T= 2.0061

 **********************************************************************

            Population analysis using the SCF density.

 **********************************************************************

 Alpha  occ. eigenvalues --  -90.56430 -90.53635 -90.53182 -15.08622 -15.05416
 Alpha  occ. eigenvalues --  -15.04968 -15.04934 -10.89945 -10.89826 -10.89736
 Alpha  occ. eigenvalues --  -10.88752 -10.87414 -10.84946 -10.84331 -10.84310
 Alpha  occ. eigenvalues --   -8.57525  -8.55034  -8.54609  -6.40063  -6.39712
 Alpha  occ. eigenvalues --   -6.39400  -6.37596  -6.37281  -6.37163  -6.36853
 Alpha  occ. eigenvalues --   -6.36821  -6.36392  -1.20533  -1.12895  -1.12139
 Alpha  occ. eigenvalues --   -1.11337  -1.07643  -1.03801  -0.98824  -0.97395
 Alpha  occ. eigenvalues --   -0.88002  -0.84555  -0.82236  -0.73686  -0.71296
 Alpha  occ. eigenvalues --   -0.67838  -0.64612  -0.59530  -0.57258  -0.55386
 Alpha  occ. eigenvalues --   -0.53385  -0.52647  -0.52242  -0.51890  -0.50883
 Alpha  occ. eigenvalues --   -0.50387  -0.49356  -0.48215  -0.46805  -0.46074
 Alpha  occ. eigenvalues --   -0.45933  -0.45296  -0.43720  -0.43113  -0.39488
 Alpha  occ. eigenvalues --   -0.37627  -0.33119
 Alpha virt. eigenvalues --   -0.09329  -0.08268  -0.02098  -0.01264  -0.00501
 Alpha virt. eigenvalues --   -0.00362   0.00153   0.01255   0.02023   0.02230
 Alpha virt. eigenvalues --    0.02394   0.02958   0.03191   0.04003   0.04274
 Alpha virt. eigenvalues --    0.04484   0.05427   0.06005   0.06300   0.07067
 Alpha virt. eigenvalues --    0.07275   0.07525   0.07708   0.08289   0.08490
 Alpha virt. eigenvalues --    0.09375   0.10093   0.10395   0.10524   0.10813
 Alpha virt. eigenvalues --    0.11288   0.11392   0.11980   0.12527   0.13229
 Alpha virt. eigenvalues --    0.13488   0.13935   0.14451   0.15076   0.15191
 Alpha virt. eigenvalues --    0.15906   0.16277   0.16675   0.16813   0.17188
 Alpha virt. eigenvalues --    0.17363   0.17840   0.18616   0.19051   0.19566
 Alpha virt. eigenvalues --    0.19859   0.20249   0.20683   0.20938   0.21268
 Alpha virt. eigenvalues --    0.21881   0.22207   0.22577   0.22822   0.23609
 Alpha virt. eigenvalues --    0.23748   0.24119   0.24373   0.24704   0.25258
 Alpha virt. eigenvalues --    0.25696   0.25853   0.26228   0.26621   0.26746
 Alpha virt. eigenvalues --    0.27075   0.28334   0.29195   0.29661   0.30367
 Alpha virt. eigenvalues --    0.30714   0.32420   0.33454   0.34154   0.34715
 Alpha virt. eigenvalues --    0.34946   0.35469   0.36121   0.36935   0.37593
 Alpha virt. eigenvalues --    0.38150   0.39576   0.40727   0.41170   0.42049
 Alpha virt. eigenvalues --    0.42122   0.43485   0.44137   0.45736   0.45981
 Alpha virt. eigenvalues --    0.46961   0.48553   0.49571   0.50238   0.50601
 Alpha virt. eigenvalues --    0.51525   0.51858   0.53530   0.54167   0.54427
 Alpha virt. eigenvalues --    0.54701   0.55470   0.55736   0.55839   0.56451
 Alpha virt. eigenvalues --    0.57776   0.58138   0.58558   0.59218   0.60313
 Alpha virt. eigenvalues --    0.60551   0.61101   0.61586   0.62104   0.62708
 Alpha virt. eigenvalues --    0.63713   0.64717   0.64954   0.66004   0.66556
 Alpha virt. eigenvalues --    0.67685   0.68189   0.68806   0.70108   0.70415
 Alpha virt. eigenvalues --    0.71050   0.72863   0.73467   0.73857   0.75373
 Alpha virt. eigenvalues --    0.75568   0.76457   0.77062   0.77553   0.77842
 Alpha virt. eigenvalues --    0.78246   0.79256   0.79760   0.79877   0.81108
 Alpha virt. eigenvalues --    0.81537   0.82548   0.83277   0.83959   0.84873
 Alpha virt. eigenvalues --    0.85698   0.85939   0.87123   0.87250   0.88402
 Alpha virt. eigenvalues --    0.88458   0.89345   0.89668   0.89831   0.90730
 Alpha virt. eigenvalues --    0.91171   0.91723   0.92829   0.93720   0.94367
 Alpha virt. eigenvalues --    0.95432   0.95563   0.97327   0.98744   0.99312
 Alpha virt. eigenvalues --    0.99845   1.01206   1.02848   1.03578   1.04751
 Alpha virt. eigenvalues --    1.05757   1.06745   1.08039   1.08543   1.09637
 Alpha virt. eigenvalues --    1.10236   1.11401   1.13199   1.13608   1.14405
 Alpha virt. eigenvalues --    1.15324   1.17102   1.18348   1.20284   1.20633
 Alpha virt. eigenvalues --    1.21607   1.22703   1.23936   1.24222   1.26561
 Alpha virt. eigenvalues --    1.27343   1.29758   1.30250   1.32273   1.34126
 Alpha virt. eigenvalues --    1.37314   1.40082   1.40260   1.41566   1.42731
 Alpha virt. eigenvalues --    1.43616   1.45025   1.46463   1.47271   1.49372
 Alpha virt. eigenvalues --    1.49823   1.50476   1.51643   1.51869   1.52334
 Alpha virt. eigenvalues --    1.53719   1.54195   1.55432   1.56139   1.56451
 Alpha virt. eigenvalues --    1.56791   1.58486   1.59728   1.60390   1.60517
 Alpha virt. eigenvalues --    1.62131   1.63284   1.64921   1.66028   1.67548
 Alpha virt. eigenvalues --    1.68614   1.69172   1.70471   1.71322   1.74152
 Alpha virt. eigenvalues --    1.76827   1.77079   1.79017   1.79378   1.81041
 Alpha virt. eigenvalues --    1.82955   1.85920   1.88150   1.89704   1.90609
 Alpha virt. eigenvalues --    1.91369   1.94485   1.95006   1.97392   2.00538
 Alpha virt. eigenvalues --    2.00825   2.05449   2.07037   2.08350   2.08471
 Alpha virt. eigenvalues --    2.10898   2.13937   2.18608   2.20234   2.24595
 Alpha virt. eigenvalues --    2.27647   2.30688   2.37025   2.37401   2.38001
 Alpha virt. eigenvalues --    2.38279   2.39370   2.39930   2.40471   2.42150
 Alpha virt. eigenvalues --    2.42561   2.43757   2.45055   2.51015   2.54996
 Alpha virt. eigenvalues --    2.61158   2.64126   2.68330   2.71900   2.73264
 Alpha virt. eigenvalues --    2.76309   2.78780   2.81840   2.94680   2.99731
 Alpha virt. eigenvalues --    3.01876   3.09942   3.11452   3.15938   3.17850
 Alpha virt. eigenvalues --    3.24293   3.27129   3.35296   3.59303   3.74889
          Condensed to atoms (all electrons):
 Mulliken charges:
               1
     1  C    0.620021
     2  C   -0.108873
     3  S    0.374840
     4  S    0.297648
     5  C    1.039163
     6  C    1.130857
     7  C    0.786615
     8  N   -1.083516
     9  S    0.557279
    10  C   -1.129706
    11  N   -0.167939
    12  C   -1.099802
    13  N   -0.180442
    14  C   -0.853147
    15  N   -0.182997
 Sum of Mulliken charges =  -0.00000
 Mulliken charges with hydrogens summed into heavy atoms:
               1
     1  C    0.620021
     2  C   -0.108873
     3  S    0.374840
     4  S    0.297648
     5  C    1.039163
     6  C    1.130857
     7  C    0.786615
     8  N   -1.083516
     9  S    0.557279
    10  C   -1.129706
    11  N   -0.167939
    12  C   -1.099802
    13  N   -0.180442
    14  C   -0.853147
    15  N   -0.182997
 Electronic spatial extent (au):  <R**2>=          29868.4065
 Charge=             -0.0000 electrons
 Dipole moment (field-independent basis, Debye):
    X=             -2.1247    Y=              1.8349    Z=             -3.7513  Tot=              4.6854

 Test job not archived.
 1\1\GINC-CHIMERA-NODE23\SP\RM05\Gen\C8N4S3\CONNORNM\19-Jan-2019\0\\#T 
 M05/Gen test Massage SCF=(fermi,maxcyc=60)\\M05 opt\\0,1\C,0,-0.333327
 28,0.93075691,7.38206446\C,0,-0.31203325,0.01565577,6.29212725\S,0,-0.
 59923382,0.49580892,9.06391778\S,0,-0.52088302,-1.73429757,6.46134135\
 C,0,0.14864164,-1.11144827,9.10301629\C,0,0.17688963,-1.99405336,8.069
 6459\C,0,-0.18483638,2.21908906,6.90935533\N,0,-0.16080402,0.51401286,
 5.08936794\S,0,-0.06181841,2.17315178,5.18089274\C,0,0.70439819,-1.439
 14536,10.37377942\N,0,1.12153103,-1.67014539,11.43388895\C,0,0.7647901
 2,-3.2845659,8.22094798\N,0,1.20650308,-4.35615564,8.30761537\C,0,-0.1
 6146737,3.42845046,7.64560756\N,0,-0.14928462,4.43141855,8.23297669\\V
 ersion=AS64L-G09RevD.01\HF=-1724.7614841\RMSD=5.151e-09\Dipole=-0.8359
 146,0.7219157,-1.4758575\Quadrupole=23.2942847,3.9911869,-27.2854716,5
 .4830174,-15.8467146,9.8215336\PG=C01 [X(C8N4S3)]\\@


 THESE ARE THE TIMES THAT TRY MENS SOULS.
 THE SUMMER SOLDIER AND THE SUNSHINE PATRIOT WILL IN THIS CRISIS,
 SHRINK FROM THE SERVICE OF HIS COUNTRY.  BUT HE THAT STANDS NOW,
 DESERVES THE LOVE AND THANKS OF MAN AND WOMAN.
 TYRANNY, LIKE HELL, IS NOT EASILY CONQUERED,
 YET WE HAVE THIS CONSOLATION WITH US,
 THAT THE HARDER THE CONFLICT, THE MORE GLORIOUS THE TRIUMPH.
 WHAT WE OBTAIN TOO CHEAP, WE ESTEEM TOO LIGHTLY, 
 'TIS DEARNESS ONLY THAT GIVES EVERYTHING ITS VALUE.

                                              -- TOM PAINE
 Job cpu time:       0 days  1 hours 38 minutes 16.0 seconds.
 File lengths (MBytes):  RWF=     58 Int=      0 D2E=      0 Chk=      6 Scr=      1
 Normal termination of Gaussian 09 at Sat Jan 19 10:58:01 2019.
