 Entering Gaussian System, Link 0=/data/szalewicgrp/connornm/opt/Gaussian/g09-M05-par/g09/g09
 AtFile(1): blind-aug.gbs
 Initial command:
 /data/szalewicgrp/connornm/opt/Gaussian/g09-M05-par/g09/l1.exe "/scratch/local/Gau-7274.inp" -scrdir="/scratch/local/"
 Entering Link 1 = /data/szalewicgrp/connornm/opt/Gaussian/g09-M05-par/g09/l1.exe PID=      7275.
  
 Copyright (c) 1988,1990,1992,1993,1995,1998,2003,2009,2013,
            Gaussian, Inc.  All Rights Reserved.
  
 This is part of the Gaussian(R) 09 program.  It is based on
 the Gaussian(R) 03 system (copyright 2003, Gaussian, Inc.),
 the Gaussian(R) 98 system (copyright 1998, Gaussian, Inc.),
 the Gaussian(R) 94 system (copyright 1995, Gaussian, Inc.),
 the Gaussian 92(TM) system (copyright 1992, Gaussian, Inc.),
 the Gaussian 90(TM) system (copyright 1990, Gaussian, Inc.),
 the Gaussian 88(TM) system (copyright 1988, Gaussian, Inc.),
 the Gaussian 86(TM) system (copyright 1986, Carnegie Mellon
 University), and the Gaussian 82(TM) system (copyright 1983,
 Carnegie Mellon University). Gaussian is a federally registered
 trademark of Gaussian, Inc.
  
 This software contains proprietary and confidential information,
 including trade secrets, belonging to Gaussian, Inc.
  
 This software is provided under written license and may be
 used, copied, transmitted, or stored only in accord with that
 written license.
  
 The following legend is applicable only to US Government
 contracts under FAR:
  
                    RESTRICTED RIGHTS LEGEND
  
 Use, reproduction and disclosure by the US Government is
 subject to restrictions as set forth in subparagraphs (a)
 and (c) of the Commercial Computer Software - Restricted
 Rights clause in FAR 52.227-19.
  
 Gaussian, Inc.
 340 Quinnipiac St., Bldg. 40, Wallingford CT 06492
  
  
 ---------------------------------------------------------------
 Warning -- This program may not be used in any manner that
 competes with the business of Gaussian, Inc. or will provide
 assistance to any competitor of Gaussian, Inc.  The licensee
 of this program is prohibited from giving any competitor of
 Gaussian, Inc. access to this program.  By using this program,
 the user acknowledges that Gaussian, Inc. is engaged in the
 business of creating and licensing software in the field of
 computational chemistry and represents and warrants to the
 licensee that it is not a competitor of Gaussian, Inc. and that
 it will not use this program in any manner prohibited above.
 ---------------------------------------------------------------
  

 Cite this work as:
 Gaussian 09, Revision D.01,
 M. J. Frisch, G. W. Trucks, H. B. Schlegel, G. E. Scuseria, 
 M. A. Robb, J. R. Cheeseman, G. Scalmani, V. Barone, B. Mennucci, 
 G. A. Petersson, H. Nakatsuji, M. Caricato, X. Li, H. P. Hratchian, 
 A. F. Izmaylov, J. Bloino, G. Zheng, J. L. Sonnenberg, M. Hada, 
 M. Ehara, K. Toyota, R. Fukuda, J. Hasegawa, M. Ishida, T. Nakajima, 
 Y. Honda, O. Kitao, H. Nakai, T. Vreven, J. A. Montgomery, Jr., 
 J. E. Peralta, F. Ogliaro, M. Bearpark, J. J. Heyd, E. Brothers, 
 K. N. Kudin, V. N. Staroverov, T. Keith, R. Kobayashi, J. Normand, 
 K. Raghavachari, A. Rendell, J. C. Burant, S. S. Iyengar, J. Tomasi, 
 M. Cossi, N. Rega, J. M. Millam, M. Klene, J. E. Knox, J. B. Cross, 
 V. Bakken, C. Adamo, J. Jaramillo, R. Gomperts, R. E. Stratmann, 
 O. Yazyev, A. J. Austin, R. Cammi, C. Pomelli, J. W. Ochterski, 
 R. L. Martin, K. Morokuma, V. G. Zakrzewski, G. A. Voth, 
 P. Salvador, J. J. Dannenberg, S. Dapprich, A. D. Daniels, 
 O. Farkas, J. B. Foresman, J. V. Ortiz, J. Cioslowski, 
 and D. J. Fox, Gaussian, Inc., Wallingford CT, 2013.
 
 ******************************************
 Gaussian 09:  AS64L-G09RevD.01 24-Apr-2013
                19-Jan-2019 
 ******************************************
 %Chk=BLIND01447_mB
 %Mem=1GB
 %NProcShared=48
 Will use up to   48 processors via shared memory.
 ---------------------------------------------
 #T M05/Gen test Massage SCF=(fermi,maxcyc=60)
 ---------------------------------------------
 -------
 M05 opt
 -------
 Symbolic Z-matrix:
 Charge =  0 Multiplicity = 1
 6                    -0.01746  -0.44726   8.82116 
 6                     0.30791   0.93763   8.86624 
 16                   -1.0584   -1.20408   7.62441 
 16                   -0.26527   2.13051   7.69019 
 6                    -0.70442  -0.19837   6.2076 
 6                    -0.39152   1.12408   6.23687 
 6                     0.55048  -1.09283   9.90097 
 7                     1.0517    1.35003   9.86351 
 16                    1.39866   0.06899   10.86823 
 6                    -0.82234  -0.90561   4.97593 
 7                    -0.95415  -1.51805   3.99678 
 6                    -0.1703    1.85403   5.0318 
 7                    -0.01079   2.49436   4.07501 
 6                     0.47062  -2.46354   10.24729 
 7                     0.40808  -3.58358   10.55176 
 
                    Distance matrix (angstroms):
                    1          2          3          4          5
     1  C    0.000000
     2  C    1.423315   0.000000
     3  S    1.757418   2.827694   0.000000
     4  S    2.825849   1.770477   3.428253   0.000000
     5  C    2.713774   3.063280   1.773167   2.795470   0.000000
     6  C    3.047557   2.727187   2.791121   1.772288   1.359281
     7  C    1.380327   2.291783   2.789903   3.992857   4.001979
     8  N    2.336642   1.310672   3.998700   2.658358   4.341342
     9  S    2.542129   2.439721   4.263822   4.137445   5.120151
    10  C    3.955208   4.450782   2.675676   4.110426   1.425163
    11  N    5.029770   5.597745   3.642685   5.237162   2.586817
    12  C    4.436049   3.971317   4.106384   2.674416   2.424897
    13  N    5.583831   5.047859   5.232040   3.642352   3.504263
    14  C    2.517432   3.674472   3.286888   5.309014   4.778168
    15  N    3.607292   4.826214   4.047461   6.425950   5.618639
                    6          7          8          9         10
     6  C    0.000000
     7  C    4.384939   0.000000
     8  N    3.909794   2.494036   0.000000
     9  S    5.076167   1.733444   1.664607   0.000000
    10  C    2.428007   5.116215   5.699860   6.371958   0.000000
    11  N    3.509330   6.107712   6.831389   7.434461   1.162408
    12  C    1.426163   5.736923   5.009263   6.301738   2.836178
    13  N    2.587713   6.864751   5.995430   7.349618   3.609722
    14  C    5.449573   1.416040   3.876636   2.767765   5.646781
    15  N    6.435818   2.578302   5.022796   3.797715   6.306769
                   11         12         13         14         15
    11  N    0.000000
    12  C    3.613393   0.000000
    13  N    4.122555   1.162293   0.000000
    14  C    6.480188   6.800997   7.931563   0.000000
    15  N    7.006418   7.769948   8.891861   1.162367   0.000000
 Symmetry turned off by external request.
 Framework group  C1[X(C8N4S3)]
 Deg. of freedom    39
 Rotational constants (GHZ):      0.7722167      0.3388923      0.2463240
   357 basis functions,   759 primitive gaussians,   387 cartesian basis functions
    62 alpha electrons       62 beta electrons
       nuclear repulsion energy      1166.1400392610 Hartrees.
 IMHF & INEx in M05                  599485                  400514
 NAtoms=   15 NActive=   15 NUniq=   15 SFac= 1.00D+00 NAtFMM=   60 NAOKFM=F Big=F
 PrsmSu:  requested number of processors reduced to:  34 ShMem   1 Linda.
 ExpMin= 3.99D-02 ExpMax= 1.11D+05 ExpMxC= 1.07D+03 IAcc=3 IRadAn=         5 AccDes= 0.00D+00
 Harris functional with IExCor= 1009 and IRadAn=       5 diagonalized for initial guess.
 HarFok:  IExCor= 1009 AccDes= 0.00D+00 IRadAn=         5 IDoV= 1 UseB2=F ITyADJ=14
 ICtDFT=  3500011 ScaDFX=  1.000000  1.000000  1.000000  1.000000
 FoFCou: FMM=F IPFlag=           0 FMFlag=      100000 FMFlg1=           0
         NFxFlg=           0 DoJE=T BraDBF=F KetDBF=T FulRan=T
         wScrn=  0.000000 ICntrl=     500 IOpCl=  0 I1Cent=   200000004 NGrid=           0
         NMat0=    1 NMatS0=      1 NMatT0=    0 NMatD0=    1 NMtDS0=    0 NMtDT0=    0
 Symmetry not used in FoFCou.
 SCF Done:  E(RM05) =  -1724.76146979     A.U. after   17 cycles
            NFock= 17  Conv=0.52D-08     -V/T= 2.0061

 **********************************************************************

            Population analysis using the SCF density.

 **********************************************************************

 Alpha  occ. eigenvalues --  -90.56429 -90.53636 -90.53183 -15.08621 -15.05416
 Alpha  occ. eigenvalues --  -15.04969 -15.04934 -10.89945 -10.89827 -10.89736
 Alpha  occ. eigenvalues --  -10.88752 -10.87414 -10.84946 -10.84332 -10.84311
 Alpha  occ. eigenvalues --   -8.57524  -8.55035  -8.54610  -6.40062  -6.39711
 Alpha  occ. eigenvalues --   -6.39399  -6.37597  -6.37282  -6.37163  -6.36853
 Alpha  occ. eigenvalues --   -6.36822  -6.36393  -1.20533  -1.12895  -1.12139
 Alpha  occ. eigenvalues --   -1.11338  -1.07643  -1.03801  -0.98824  -0.97396
 Alpha  occ. eigenvalues --   -0.88003  -0.84555  -0.82236  -0.73687  -0.71296
 Alpha  occ. eigenvalues --   -0.67838  -0.64612  -0.59530  -0.57258  -0.55386
 Alpha  occ. eigenvalues --   -0.53384  -0.52647  -0.52243  -0.51890  -0.50883
 Alpha  occ. eigenvalues --   -0.50387  -0.49356  -0.48216  -0.46804  -0.46074
 Alpha  occ. eigenvalues --   -0.45933  -0.45296  -0.43720  -0.43113  -0.39488
 Alpha  occ. eigenvalues --   -0.37627  -0.33120
 Alpha virt. eigenvalues --   -0.09329  -0.08268  -0.02100  -0.01262  -0.00506
 Alpha virt. eigenvalues --   -0.00361   0.00153   0.01255   0.02018   0.02230
 Alpha virt. eigenvalues --    0.02393   0.02957   0.03189   0.04002   0.04277
 Alpha virt. eigenvalues --    0.04487   0.05428   0.06005   0.06299   0.07066
 Alpha virt. eigenvalues --    0.07269   0.07525   0.07706   0.08291   0.08491
 Alpha virt. eigenvalues --    0.09378   0.10093   0.10388   0.10525   0.10808
 Alpha virt. eigenvalues --    0.11285   0.11393   0.11981   0.12526   0.13226
 Alpha virt. eigenvalues --    0.13488   0.13940   0.14453   0.15076   0.15190
 Alpha virt. eigenvalues --    0.15899   0.16266   0.16673   0.16814   0.17188
 Alpha virt. eigenvalues --    0.17354   0.17839   0.18620   0.19053   0.19563
 Alpha virt. eigenvalues --    0.19862   0.20241   0.20684   0.20954   0.21265
 Alpha virt. eigenvalues --    0.21882   0.22208   0.22583   0.22827   0.23617
 Alpha virt. eigenvalues --    0.23745   0.24104   0.24372   0.24706   0.25259
 Alpha virt. eigenvalues --    0.25697   0.25851   0.26227   0.26618   0.26746
 Alpha virt. eigenvalues --    0.27069   0.28335   0.29193   0.29661   0.30368
 Alpha virt. eigenvalues --    0.30713   0.32422   0.33454   0.34153   0.34715
 Alpha virt. eigenvalues --    0.34947   0.35469   0.36122   0.36936   0.37591
 Alpha virt. eigenvalues --    0.38153   0.39574   0.40730   0.41171   0.42049
 Alpha virt. eigenvalues --    0.42122   0.43484   0.44134   0.45737   0.45978
 Alpha virt. eigenvalues --    0.46955   0.48538   0.49568   0.50226   0.50593
 Alpha virt. eigenvalues --    0.51526   0.51857   0.53527   0.54165   0.54425
 Alpha virt. eigenvalues --    0.54698   0.55463   0.55734   0.55836   0.56455
 Alpha virt. eigenvalues --    0.57764   0.58139   0.58553   0.59215   0.60308
 Alpha virt. eigenvalues --    0.60551   0.61101   0.61588   0.62104   0.62710
 Alpha virt. eigenvalues --    0.63710   0.64718   0.64951   0.66004   0.66554
 Alpha virt. eigenvalues --    0.67689   0.68185   0.68805   0.70107   0.70410
 Alpha virt. eigenvalues --    0.71049   0.72862   0.73468   0.73855   0.75370
 Alpha virt. eigenvalues --    0.75565   0.76458   0.77061   0.77552   0.77843
 Alpha virt. eigenvalues --    0.78246   0.79256   0.79763   0.79880   0.81109
 Alpha virt. eigenvalues --    0.81534   0.82543   0.83275   0.83954   0.84872
 Alpha virt. eigenvalues --    0.85698   0.85938   0.87124   0.87250   0.88402
 Alpha virt. eigenvalues --    0.88459   0.89345   0.89666   0.89830   0.90732
 Alpha virt. eigenvalues --    0.91171   0.91722   0.92831   0.93725   0.94367
 Alpha virt. eigenvalues --    0.95432   0.95570   0.97325   0.98743   0.99313
 Alpha virt. eigenvalues --    0.99849   1.01210   1.02849   1.03576   1.04750
 Alpha virt. eigenvalues --    1.05760   1.06742   1.08037   1.08543   1.09637
 Alpha virt. eigenvalues --    1.10234   1.11398   1.13195   1.13605   1.14402
 Alpha virt. eigenvalues --    1.15319   1.17101   1.18343   1.20287   1.20633
 Alpha virt. eigenvalues --    1.21606   1.22702   1.23932   1.24221   1.26556
 Alpha virt. eigenvalues --    1.27345   1.29757   1.30253   1.32269   1.34124
 Alpha virt. eigenvalues --    1.37312   1.40079   1.40254   1.41565   1.42727
 Alpha virt. eigenvalues --    1.43617   1.45022   1.46460   1.47274   1.49369
 Alpha virt. eigenvalues --    1.49823   1.50473   1.51640   1.51871   1.52332
 Alpha virt. eigenvalues --    1.53714   1.54192   1.55429   1.56137   1.56450
 Alpha virt. eigenvalues --    1.56788   1.58485   1.59725   1.60391   1.60517
 Alpha virt. eigenvalues --    1.62129   1.63280   1.64923   1.66028   1.67548
 Alpha virt. eigenvalues --    1.68612   1.69175   1.70470   1.71324   1.74152
 Alpha virt. eigenvalues --    1.76825   1.77077   1.79017   1.79378   1.81038
 Alpha virt. eigenvalues --    1.82958   1.85917   1.88152   1.89703   1.90607
 Alpha virt. eigenvalues --    1.91369   1.94484   1.95008   1.97394   2.00538
 Alpha virt. eigenvalues --    2.00824   2.05449   2.07038   2.08351   2.08474
 Alpha virt. eigenvalues --    2.10894   2.13937   2.18608   2.20237   2.24597
 Alpha virt. eigenvalues --    2.27648   2.30686   2.37026   2.37402   2.38001
 Alpha virt. eigenvalues --    2.38280   2.39369   2.39929   2.40470   2.42149
 Alpha virt. eigenvalues --    2.42560   2.43755   2.45056   2.51018   2.54996
 Alpha virt. eigenvalues --    2.61160   2.64120   2.68329   2.71898   2.73264
 Alpha virt. eigenvalues --    2.76309   2.78780   2.81841   2.94681   2.99730
 Alpha virt. eigenvalues --    3.01877   3.09942   3.11450   3.15939   3.17850
 Alpha virt. eigenvalues --    3.24291   3.27127   3.35292   3.59308   3.74890
          Condensed to atoms (all electrons):
 Mulliken charges:
               1
     1  C    0.620864
     2  C   -0.109283
     3  S    0.373712
     4  S    0.296474
     5  C    1.040570
     6  C    1.131518
     7  C    0.786287
     8  N   -1.083045
     9  S    0.557336
    10  C   -1.130547
    11  N   -0.167789
    12  C   -1.099834
    13  N   -0.180321
    14  C   -0.852931
    15  N   -0.183013
 Sum of Mulliken charges =  -0.00000
 Mulliken charges with hydrogens summed into heavy atoms:
               1
     1  C    0.620864
     2  C   -0.109283
     3  S    0.373712
     4  S    0.296474
     5  C    1.040570
     6  C    1.131518
     7  C    0.786287
     8  N   -1.083045
     9  S    0.557336
    10  C   -1.130547
    11  N   -0.167789
    12  C   -1.099834
    13  N   -0.180321
    14  C   -0.852931
    15  N   -0.183013
 Electronic spatial extent (au):  <R**2>=          31623.7202
 Charge=             -0.0000 electrons
 Dipole moment (field-independent basis, Debye):
    X=              0.0767    Y=              1.5454    Z=              4.4220  Tot=              4.6849

 Test job not archived.
 1\1\GINC-CHIMERA-NODE50\SP\RM05\Gen\C8N4S3\CONNORNM\19-Jan-2019\0\\#T 
 M05/Gen test Massage SCF=(fermi,maxcyc=60)\\M05 opt\\0,1\C,0,-0.017464
 89,-0.44726314,8.82115943\C,0,0.30791429,0.93762787,8.86623631\S,0,-1.
 05839567,-1.20408263,7.62441216\S,0,-0.26526562,2.13051411,7.69019398\
 C,0,-0.70442395,-0.19836894,6.20759669\C,0,-0.39151622,1.12408183,6.23
 686741\C,0,0.55047727,-1.09283017,9.90096873\N,0,1.05170273,1.35003425
 ,9.86351248\S,0,1.39865637,0.06898796,10.86823158\C,0,-0.8223427,-0.90
 561155,4.9759341\N,0,-0.95414779,-1.5180483,3.99678056\C,0,-0.17030036
 ,1.85403097,5.03180321\N,0,-0.01079023,2.49435935,4.07500531\C,0,0.470
 61715,-2.46354132,10.2472948\N,0,0.40807871,-3.5835783,10.55176485\\Ve
 rsion=AS64L-G09RevD.01\HF=-1724.7614698\RMSD=5.190e-09\Dipole=0.030189
 1,0.607989,1.7397445\Quadrupole=-5.6159808,-21.961755,27.5777358,-1.64
 6198,0.3847529,14.7207006\PG=C01 [X(C8N4S3)]\\@


 Life may have no meaning.  Or even worse, it may have a
 meaning of which I disapprove.
                                 -- Ashleigh Brilliant
 Job cpu time:       0 days  1 hours 39 minutes 42.1 seconds.
 File lengths (MBytes):  RWF=     58 Int=      0 D2E=      0 Chk=      6 Scr=      1
 Normal termination of Gaussian 09 at Sat Jan 19 10:44:52 2019.
