 Entering Gaussian System, Link 0=/data/szalewicgrp/connornm/opt/Gaussian/g09-M05-par/g09/g09
 AtFile(1): blind-aug.gbs
 Initial command:
 /data/szalewicgrp/connornm/opt/Gaussian/g09-M05-par/g09/l1.exe "/scratch/local/Gau-15797.inp" -scrdir="/scratch/local/"
 Entering Link 1 = /data/szalewicgrp/connornm/opt/Gaussian/g09-M05-par/g09/l1.exe PID=     15798.
  
 Copyright (c) 1988,1990,1992,1993,1995,1998,2003,2009,2013,
            Gaussian, Inc.  All Rights Reserved.
  
 This is part of the Gaussian(R) 09 program.  It is based on
 the Gaussian(R) 03 system (copyright 2003, Gaussian, Inc.),
 the Gaussian(R) 98 system (copyright 1998, Gaussian, Inc.),
 the Gaussian(R) 94 system (copyright 1995, Gaussian, Inc.),
 the Gaussian 92(TM) system (copyright 1992, Gaussian, Inc.),
 the Gaussian 90(TM) system (copyright 1990, Gaussian, Inc.),
 the Gaussian 88(TM) system (copyright 1988, Gaussian, Inc.),
 the Gaussian 86(TM) system (copyright 1986, Carnegie Mellon
 University), and the Gaussian 82(TM) system (copyright 1983,
 Carnegie Mellon University). Gaussian is a federally registered
 trademark of Gaussian, Inc.
  
 This software contains proprietary and confidential information,
 including trade secrets, belonging to Gaussian, Inc.
  
 This software is provided under written license and may be
 used, copied, transmitted, or stored only in accord with that
 written license.
  
 The following legend is applicable only to US Government
 contracts under FAR:
  
                    RESTRICTED RIGHTS LEGEND
  
 Use, reproduction and disclosure by the US Government is
 subject to restrictions as set forth in subparagraphs (a)
 and (c) of the Commercial Computer Software - Restricted
 Rights clause in FAR 52.227-19.
  
 Gaussian, Inc.
 340 Quinnipiac St., Bldg. 40, Wallingford CT 06492
  
  
 ---------------------------------------------------------------
 Warning -- This program may not be used in any manner that
 competes with the business of Gaussian, Inc. or will provide
 assistance to any competitor of Gaussian, Inc.  The licensee
 of this program is prohibited from giving any competitor of
 Gaussian, Inc. access to this program.  By using this program,
 the user acknowledges that Gaussian, Inc. is engaged in the
 business of creating and licensing software in the field of
 computational chemistry and represents and warrants to the
 licensee that it is not a competitor of Gaussian, Inc. and that
 it will not use this program in any manner prohibited above.
 ---------------------------------------------------------------
  

 Cite this work as:
 Gaussian 09, Revision D.01,
 M. J. Frisch, G. W. Trucks, H. B. Schlegel, G. E. Scuseria, 
 M. A. Robb, J. R. Cheeseman, G. Scalmani, V. Barone, B. Mennucci, 
 G. A. Petersson, H. Nakatsuji, M. Caricato, X. Li, H. P. Hratchian, 
 A. F. Izmaylov, J. Bloino, G. Zheng, J. L. Sonnenberg, M. Hada, 
 M. Ehara, K. Toyota, R. Fukuda, J. Hasegawa, M. Ishida, T. Nakajima, 
 Y. Honda, O. Kitao, H. Nakai, T. Vreven, J. A. Montgomery, Jr., 
 J. E. Peralta, F. Ogliaro, M. Bearpark, J. J. Heyd, E. Brothers, 
 K. N. Kudin, V. N. Staroverov, T. Keith, R. Kobayashi, J. Normand, 
 K. Raghavachari, A. Rendell, J. C. Burant, S. S. Iyengar, J. Tomasi, 
 M. Cossi, N. Rega, J. M. Millam, M. Klene, J. E. Knox, J. B. Cross, 
 V. Bakken, C. Adamo, J. Jaramillo, R. Gomperts, R. E. Stratmann, 
 O. Yazyev, A. J. Austin, R. Cammi, C. Pomelli, J. W. Ochterski, 
 R. L. Martin, K. Morokuma, V. G. Zakrzewski, G. A. Voth, 
 P. Salvador, J. J. Dannenberg, S. Dapprich, A. D. Daniels, 
 O. Farkas, J. B. Foresman, J. V. Ortiz, J. Cioslowski, 
 and D. J. Fox, Gaussian, Inc., Wallingford CT, 2013.
 
 ******************************************
 Gaussian 09:  AS64L-G09RevD.01 24-Apr-2013
                19-Jan-2019 
 ******************************************
 %Chk=BLIND02099_mA
 %Mem=1GB
 %NProcShared=48
 Will use up to   48 processors via shared memory.
 ---------------------------------------------
 #T M05/Gen test Massage SCF=(fermi,maxcyc=60)
 ---------------------------------------------
 -------
 M05 opt
 -------
 Symbolic Z-matrix:
 Charge =  0 Multiplicity = 1
 6                     0.75673   0.66655  -0.15551 
 6                     1.0984   -0.67464  -0.48763 
 16                   -0.38251   1.14069   1.09582 
 16                    0.39786  -2.10002   0.29475 
 6                    -1.53045  -0.20826   1.01414 
 6                    -1.21765  -1.4926    0.69745 
 6                     1.50879   1.53901  -0.91612 
 7                     2.01396  -0.85321  -1.40836 
 16                    2.57084   0.62413  -1.93586 
 6                    -2.8598    0.16631   1.36572 
 7                    -3.92262   0.51433   1.68273 
 6                    -2.21183  -2.51507   0.70675 
 7                    -2.98248  -3.38484   0.7298 
 6                     1.49673   2.9549   -0.89936 
 7                     1.50673   4.1172   -0.89242 
 
                    Distance matrix (angstroms):
                    1          2          3          4          5
     1  C    0.000000
     2  C    1.423315   0.000000
     3  S    1.757418   2.827694   0.000000
     4  S    2.825849   1.770477   3.428253   0.000000
     5  C    2.713774   3.063280   1.773167   2.795470   0.000000
     6  C    3.047557   2.727187   2.791121   1.772288   1.359281
     7  C    1.380327   2.291783   2.789903   3.992857   4.001979
     8  N    2.336642   1.310672   3.998700   2.658358   4.341342
     9  S    2.542129   2.439721   4.263822   4.137445   5.120151
    10  C    3.955208   4.450782   2.675676   4.110426   1.425163
    11  N    5.029770   5.597745   3.642685   5.237162   2.586817
    12  C    4.436049   3.971317   4.106384   2.674416   2.424897
    13  N    5.583831   5.047859   5.232040   3.642352   3.504263
    14  C    2.517432   3.674472   3.286888   5.309014   4.778168
    15  N    3.607292   4.826214   4.047461   6.425950   5.618639
                    6          7          8          9         10
     6  C    0.000000
     7  C    4.384939   0.000000
     8  N    3.909794   2.494036   0.000000
     9  S    5.076167   1.733444   1.664607   0.000000
    10  C    2.428007   5.116215   5.699860   6.371958   0.000000
    11  N    3.509330   6.107712   6.831389   7.434461   1.162408
    12  C    1.426163   5.736923   5.009263   6.301738   2.836178
    13  N    2.587713   6.864751   5.995430   7.349618   3.609722
    14  C    5.449573   1.416040   3.876636   2.767765   5.646781
    15  N    6.435818   2.578302   5.022796   3.797715   6.306769
                   11         12         13         14         15
    11  N    0.000000
    12  C    3.613393   0.000000
    13  N    4.122555   1.162293   0.000000
    14  C    6.480188   6.800997   7.931563   0.000000
    15  N    7.006418   7.769948   8.891861   1.162367   0.000000
 Symmetry turned off by external request.
 Framework group  C1[X(C8N4S3)]
 Deg. of freedom    39
 Rotational constants (GHZ):      0.7722167      0.3388923      0.2463240
   357 basis functions,   759 primitive gaussians,   387 cartesian basis functions
    62 alpha electrons       62 beta electrons
       nuclear repulsion energy      1166.1400395948 Hartrees.
 IMHF & INEx in M05                  599485                  400514
 NAtoms=   15 NActive=   15 NUniq=   15 SFac= 1.00D+00 NAtFMM=   60 NAOKFM=F Big=F
 PrsmSu:  requested number of processors reduced to:  34 ShMem   1 Linda.
 ExpMin= 3.99D-02 ExpMax= 1.11D+05 ExpMxC= 1.07D+03 IAcc=3 IRadAn=         5 AccDes= 0.00D+00
 Harris functional with IExCor= 1009 and IRadAn=       5 diagonalized for initial guess.
 HarFok:  IExCor= 1009 AccDes= 0.00D+00 IRadAn=         5 IDoV= 1 UseB2=F ITyADJ=14
 ICtDFT=  3500011 ScaDFX=  1.000000  1.000000  1.000000  1.000000
 FoFCou: FMM=F IPFlag=           0 FMFlag=      100000 FMFlg1=           0
         NFxFlg=           0 DoJE=T BraDBF=F KetDBF=T FulRan=T
         wScrn=  0.000000 ICntrl=     500 IOpCl=  0 I1Cent=   200000004 NGrid=           0
         NMat0=    1 NMatS0=      1 NMatT0=    0 NMatD0=    1 NMtDS0=    0 NMtDT0=    0
 Symmetry not used in FoFCou.
 SCF Done:  E(RM05) =  -1724.76147727     A.U. after   17 cycles
            NFock= 17  Conv=0.52D-08     -V/T= 2.0061

 **********************************************************************

            Population analysis using the SCF density.

 **********************************************************************

 Alpha  occ. eigenvalues --  -90.56430 -90.53635 -90.53180 -15.08622 -15.05416
 Alpha  occ. eigenvalues --  -15.04969 -15.04934 -10.89945 -10.89827 -10.89736
 Alpha  occ. eigenvalues --  -10.88752 -10.87414 -10.84946 -10.84332 -10.84311
 Alpha  occ. eigenvalues --   -8.57526  -8.55035  -8.54608  -6.40063  -6.39713
 Alpha  occ. eigenvalues --   -6.39401  -6.37596  -6.37282  -6.37161  -6.36851
 Alpha  occ. eigenvalues --   -6.36821  -6.36391  -1.20533  -1.12895  -1.12139
 Alpha  occ. eigenvalues --   -1.11338  -1.07644  -1.03801  -0.98824  -0.97396
 Alpha  occ. eigenvalues --   -0.88003  -0.84555  -0.82236  -0.73687  -0.71296
 Alpha  occ. eigenvalues --   -0.67838  -0.64612  -0.59530  -0.57258  -0.55386
 Alpha  occ. eigenvalues --   -0.53385  -0.52647  -0.52243  -0.51890  -0.50883
 Alpha  occ. eigenvalues --   -0.50387  -0.49356  -0.48215  -0.46805  -0.46075
 Alpha  occ. eigenvalues --   -0.45933  -0.45296  -0.43720  -0.43113  -0.39489
 Alpha  occ. eigenvalues --   -0.37627  -0.33120
 Alpha virt. eigenvalues --   -0.09329  -0.08268  -0.02098  -0.01263  -0.00502
 Alpha virt. eigenvalues --   -0.00362   0.00153   0.01254   0.02020   0.02229
 Alpha virt. eigenvalues --    0.02395   0.02956   0.03190   0.04002   0.04276
 Alpha virt. eigenvalues --    0.04486   0.05427   0.06005   0.06299   0.07066
 Alpha virt. eigenvalues --    0.07273   0.07525   0.07707   0.08289   0.08490
 Alpha virt. eigenvalues --    0.09373   0.10093   0.10392   0.10522   0.10816
 Alpha virt. eigenvalues --    0.11285   0.11391   0.11978   0.12527   0.13225
 Alpha virt. eigenvalues --    0.13491   0.13937   0.14455   0.15074   0.15190
 Alpha virt. eigenvalues --    0.15907   0.16280   0.16677   0.16809   0.17187
 Alpha virt. eigenvalues --    0.17359   0.17835   0.18610   0.19049   0.19562
 Alpha virt. eigenvalues --    0.19860   0.20244   0.20682   0.20939   0.21267
 Alpha virt. eigenvalues --    0.21880   0.22207   0.22582   0.22824   0.23615
 Alpha virt. eigenvalues --    0.23751   0.24116   0.24372   0.24704   0.25258
 Alpha virt. eigenvalues --    0.25697   0.25857   0.26223   0.26624   0.26744
 Alpha virt. eigenvalues --    0.27070   0.28335   0.29196   0.29661   0.30370
 Alpha virt. eigenvalues --    0.30712   0.32420   0.33458   0.34156   0.34715
 Alpha virt. eigenvalues --    0.34948   0.35471   0.36122   0.36935   0.37595
 Alpha virt. eigenvalues --    0.38154   0.39575   0.40727   0.41171   0.42050
 Alpha virt. eigenvalues --    0.42117   0.43485   0.44136   0.45734   0.45986
 Alpha virt. eigenvalues --    0.46962   0.48553   0.49572   0.50234   0.50598
 Alpha virt. eigenvalues --    0.51530   0.51856   0.53527   0.54169   0.54426
 Alpha virt. eigenvalues --    0.54703   0.55468   0.55736   0.55839   0.56455
 Alpha virt. eigenvalues --    0.57770   0.58145   0.58557   0.59220   0.60316
 Alpha virt. eigenvalues --    0.60556   0.61100   0.61584   0.62105   0.62711
 Alpha virt. eigenvalues --    0.63716   0.64715   0.64954   0.66006   0.66555
 Alpha virt. eigenvalues --    0.67686   0.68191   0.68805   0.70105   0.70415
 Alpha virt. eigenvalues --    0.71047   0.72863   0.73474   0.73853   0.75367
 Alpha virt. eigenvalues --    0.75562   0.76457   0.77061   0.77552   0.77842
 Alpha virt. eigenvalues --    0.78243   0.79254   0.79759   0.79878   0.81107
 Alpha virt. eigenvalues --    0.81536   0.82546   0.83275   0.83958   0.84872
 Alpha virt. eigenvalues --    0.85698   0.85940   0.87124   0.87249   0.88404
 Alpha virt. eigenvalues --    0.88460   0.89345   0.89666   0.89831   0.90732
 Alpha virt. eigenvalues --    0.91172   0.91722   0.92830   0.93722   0.94369
 Alpha virt. eigenvalues --    0.95430   0.95565   0.97326   0.98746   0.99315
 Alpha virt. eigenvalues --    0.99850   1.01207   1.02846   1.03575   1.04750
 Alpha virt. eigenvalues --    1.05761   1.06745   1.08041   1.08543   1.09634
 Alpha virt. eigenvalues --    1.10235   1.11403   1.13198   1.13606   1.14404
 Alpha virt. eigenvalues --    1.15326   1.17103   1.18345   1.20286   1.20633
 Alpha virt. eigenvalues --    1.21613   1.22701   1.23938   1.24221   1.26562
 Alpha virt. eigenvalues --    1.27346   1.29758   1.30250   1.32271   1.34124
 Alpha virt. eigenvalues --    1.37313   1.40084   1.40260   1.41565   1.42729
 Alpha virt. eigenvalues --    1.43617   1.45023   1.46465   1.47273   1.49369
 Alpha virt. eigenvalues --    1.49822   1.50474   1.51644   1.51870   1.52334
 Alpha virt. eigenvalues --    1.53715   1.54193   1.55431   1.56137   1.56450
 Alpha virt. eigenvalues --    1.56790   1.58487   1.59727   1.60390   1.60516
 Alpha virt. eigenvalues --    1.62129   1.63279   1.64924   1.66030   1.67547
 Alpha virt. eigenvalues --    1.68613   1.69177   1.70470   1.71323   1.74155
 Alpha virt. eigenvalues --    1.76824   1.77077   1.79017   1.79376   1.81041
 Alpha virt. eigenvalues --    1.82957   1.85918   1.88149   1.89702   1.90607
 Alpha virt. eigenvalues --    1.91369   1.94486   1.95008   1.97395   2.00540
 Alpha virt. eigenvalues --    2.00827   2.05448   2.07038   2.08349   2.08474
 Alpha virt. eigenvalues --    2.10896   2.13937   2.18605   2.20234   2.24596
 Alpha virt. eigenvalues --    2.27644   2.30686   2.37025   2.37401   2.38001
 Alpha virt. eigenvalues --    2.38279   2.39370   2.39930   2.40471   2.42149
 Alpha virt. eigenvalues --    2.42559   2.43756   2.45055   2.51015   2.54995
 Alpha virt. eigenvalues --    2.61156   2.64125   2.68329   2.71899   2.73264
 Alpha virt. eigenvalues --    2.76308   2.78779   2.81840   2.94681   2.99730
 Alpha virt. eigenvalues --    3.01874   3.09942   3.11448   3.15940   3.17849
 Alpha virt. eigenvalues --    3.24293   3.27127   3.35295   3.59307   3.74892
          Condensed to atoms (all electrons):
 Mulliken charges:
               1
     1  C    0.619320
     2  C   -0.108712
     3  S    0.374470
     4  S    0.296032
     5  C    1.039441
     6  C    1.131805
     7  C    0.788085
     8  N   -1.083216
     9  S    0.556966
    10  C   -1.129462
    11  N   -0.167908
    12  C   -1.100389
    13  N   -0.180512
    14  C   -0.852898
    15  N   -0.183022
 Sum of Mulliken charges =  -0.00000
 Mulliken charges with hydrogens summed into heavy atoms:
               1
     1  C    0.619320
     2  C   -0.108712
     3  S    0.374470
     4  S    0.296032
     5  C    1.039441
     6  C    1.131805
     7  C    0.788085
     8  N   -1.083216
     9  S    0.556966
    10  C   -1.129462
    11  N   -0.167908
    12  C   -1.100389
    13  N   -0.180512
    14  C   -0.852898
    15  N   -0.183022
 Electronic spatial extent (au):  <R**2>=           4013.7190
 Charge=             -0.0000 electrons
 Dipole moment (field-independent basis, Debye):
    X=              4.5792    Y=             -0.3687    Z=             -0.9190  Tot=              4.6851

 Test job not archived.
 1\1\GINC-CHIMERA-NODE59\SP\RM05\Gen\C8N4S3\CONNORNM\19-Jan-2019\0\\#T 
 M05/Gen test Massage SCF=(fermi,maxcyc=60)\\M05 opt\\0,1\C,0,0.7567304
 5,0.66654594,-0.15551349\C,0,1.09840204,-0.67464184,-0.48763175\S,0,-0
 .38250785,1.14069202,1.09582109\S,0,0.39786389,-2.10002206,0.29475297\
 C,0,-1.53044768,-0.20826488,1.01414179\C,0,-1.21764536,-1.49259604,0.6
 9745233\C,0,1.50879171,1.53900896,-0.91611546\N,0,2.01395697,-0.853212
 73,-1.40835518\S,0,2.57084239,0.62412911,-1.93585551\C,0,-2.85980062,0
 .16631032,1.36571518\N,0,-3.92261587,0.51433175,1.68272915\C,0,-2.2118
 2813,-2.5150715,0.70675344\N,0,-2.98247886,-3.38483732,0.72979643\C,0,
 1.49672626,2.95489818,-0.89936436\N,0,1.50673358,4.11720087,-0.8924199
 7\\Version=AS64L-G09RevD.01\HF=-1724.7614773\RMSD=5.168e-09\Dipole=1.8
 016106,-0.1450555,-0.3615483\Quadrupole=-3.320472,-7.6840247,11.004496
 7,-5.5069416,3.5752575,0.3458317\PG=C01 [X(C8N4S3)]\\@


            ARSENIC

 FOR SMELTER FUMES HAVE I BEEN NAMED,
    I AM AN EVIL POISONOUS SMOKE...
 BUT WHEN FROM POISON I AM FREED,
    THROUGH ART AND SLEIGHT OF HAND,
 THEN CAN I CURE BOTH MAN AND BEAST,
    FROM DIRE DISEASE OFTTIMES DIRECT THEM;
 BUT PREPARE ME CORRECTLY, AND TAKE GREAT CARE
    THAT YOU FAITHFULLY KEEP WATCHFUL GUARD OVER ME;
 FOR ELSE I AM POISON, AND POISON REMAIN,
    THAT PIERCES THE HEART OF MANY A ONE.

 ATTRIBUTED TO THE PROBABLY MYTHICAL 15TH
 CENTURY MONK, BASILIUS VALENTINUS
 Job cpu time:       0 days  1 hours 48 minutes 28.2 seconds.
 File lengths (MBytes):  RWF=     58 Int=      0 D2E=      0 Chk=      6 Scr=      1
 Normal termination of Gaussian 09 at Sat Jan 19 10:47:44 2019.
