 Entering Gaussian System, Link 0=/data/szalewicgrp/connornm/opt/Gaussian/g09-M05-par/g09/g09
 AtFile(1): blind-aug.gbs
 Initial command:
 /data/szalewicgrp/connornm/opt/Gaussian/g09-M05-par/g09/l1.exe "/scratch/local/Gau-41949.inp" -scrdir="/scratch/local/"
 Entering Link 1 = /data/szalewicgrp/connornm/opt/Gaussian/g09-M05-par/g09/l1.exe PID=     41950.
  
 Copyright (c) 1988,1990,1992,1993,1995,1998,2003,2009,2013,
            Gaussian, Inc.  All Rights Reserved.
  
 This is part of the Gaussian(R) 09 program.  It is based on
 the Gaussian(R) 03 system (copyright 2003, Gaussian, Inc.),
 the Gaussian(R) 98 system (copyright 1998, Gaussian, Inc.),
 the Gaussian(R) 94 system (copyright 1995, Gaussian, Inc.),
 the Gaussian 92(TM) system (copyright 1992, Gaussian, Inc.),
 the Gaussian 90(TM) system (copyright 1990, Gaussian, Inc.),
 the Gaussian 88(TM) system (copyright 1988, Gaussian, Inc.),
 the Gaussian 86(TM) system (copyright 1986, Carnegie Mellon
 University), and the Gaussian 82(TM) system (copyright 1983,
 Carnegie Mellon University). Gaussian is a federally registered
 trademark of Gaussian, Inc.
  
 This software contains proprietary and confidential information,
 including trade secrets, belonging to Gaussian, Inc.
  
 This software is provided under written license and may be
 used, copied, transmitted, or stored only in accord with that
 written license.
  
 The following legend is applicable only to US Government
 contracts under FAR:
  
                    RESTRICTED RIGHTS LEGEND
  
 Use, reproduction and disclosure by the US Government is
 subject to restrictions as set forth in subparagraphs (a)
 and (c) of the Commercial Computer Software - Restricted
 Rights clause in FAR 52.227-19.
  
 Gaussian, Inc.
 340 Quinnipiac St., Bldg. 40, Wallingford CT 06492
  
  
 ---------------------------------------------------------------
 Warning -- This program may not be used in any manner that
 competes with the business of Gaussian, Inc. or will provide
 assistance to any competitor of Gaussian, Inc.  The licensee
 of this program is prohibited from giving any competitor of
 Gaussian, Inc. access to this program.  By using this program,
 the user acknowledges that Gaussian, Inc. is engaged in the
 business of creating and licensing software in the field of
 computational chemistry and represents and warrants to the
 licensee that it is not a competitor of Gaussian, Inc. and that
 it will not use this program in any manner prohibited above.
 ---------------------------------------------------------------
  

 Cite this work as:
 Gaussian 09, Revision D.01,
 M. J. Frisch, G. W. Trucks, H. B. Schlegel, G. E. Scuseria, 
 M. A. Robb, J. R. Cheeseman, G. Scalmani, V. Barone, B. Mennucci, 
 G. A. Petersson, H. Nakatsuji, M. Caricato, X. Li, H. P. Hratchian, 
 A. F. Izmaylov, J. Bloino, G. Zheng, J. L. Sonnenberg, M. Hada, 
 M. Ehara, K. Toyota, R. Fukuda, J. Hasegawa, M. Ishida, T. Nakajima, 
 Y. Honda, O. Kitao, H. Nakai, T. Vreven, J. A. Montgomery, Jr., 
 J. E. Peralta, F. Ogliaro, M. Bearpark, J. J. Heyd, E. Brothers, 
 K. N. Kudin, V. N. Staroverov, T. Keith, R. Kobayashi, J. Normand, 
 K. Raghavachari, A. Rendell, J. C. Burant, S. S. Iyengar, J. Tomasi, 
 M. Cossi, N. Rega, J. M. Millam, M. Klene, J. E. Knox, J. B. Cross, 
 V. Bakken, C. Adamo, J. Jaramillo, R. Gomperts, R. E. Stratmann, 
 O. Yazyev, A. J. Austin, R. Cammi, C. Pomelli, J. W. Ochterski, 
 R. L. Martin, K. Morokuma, V. G. Zakrzewski, G. A. Voth, 
 P. Salvador, J. J. Dannenberg, S. Dapprich, A. D. Daniels, 
 O. Farkas, J. B. Foresman, J. V. Ortiz, J. Cioslowski, 
 and D. J. Fox, Gaussian, Inc., Wallingford CT, 2013.
 
 ******************************************
 Gaussian 09:  AS64L-G09RevD.01 24-Apr-2013
                19-Jan-2019 
 ******************************************
 %Chk=BLIND01244_mA
 %Mem=1GB
 %NProcShared=48
 Will use up to   48 processors via shared memory.
 ---------------------------------------------
 #T M05/Gen test Massage SCF=(fermi,maxcyc=60)
 ---------------------------------------------
 -------
 M05 opt
 -------
 Symbolic Z-matrix:
 Charge =  0 Multiplicity = 1
 6                     0.93704  -0.20434  -0.3483 
 6                     0.31964  -1.30385   0.31179 
 16                    0.65535   1.48934   0.02671 
 16                   -0.87072  -1.13951   1.61203 
 6                    -1.04521   1.43023   0.52546 
 6                    -1.64711   0.38676   1.15516 
 6                     1.84363  -0.67114  -1.27862 
 7                     0.6873   -2.50848  -0.0509 
 16                    1.86144  -2.4037   -1.22621 
 6                    -1.75353   2.63399   0.24199 
 7                    -2.28211   3.64347   0.01234 
 6                    -3.0135    0.45986   1.55712 
 7                    -4.11463   0.48646   1.92822 
 6                     2.67995   0.07622  -2.14302 
 7                     3.38005   0.67365  -2.85297 
 
                    Distance matrix (angstroms):
                    1          2          3          4          5
     1  C    0.000000
     2  C    1.423315   0.000000
     3  S    1.757418   2.827694   0.000000
     4  S    2.825849   1.770477   3.428253   0.000000
     5  C    2.713774   3.063280   1.773167   2.795470   0.000000
     6  C    3.047557   2.727187   2.791121   1.772288   1.359281
     7  C    1.380327   2.291783   2.789903   3.992857   4.001979
     8  N    2.336642   1.310672   3.998700   2.658358   4.341342
     9  S    2.542129   2.439721   4.263822   4.137445   5.120151
    10  C    3.955208   4.450782   2.675676   4.110426   1.425163
    11  N    5.029770   5.597745   3.642685   5.237162   2.586817
    12  C    4.436049   3.971317   4.106384   2.674416   2.424897
    13  N    5.583831   5.047859   5.232040   3.642352   3.504263
    14  C    2.517432   3.674472   3.286888   5.309014   4.778168
    15  N    3.607292   4.826214   4.047461   6.425950   5.618639
                    6          7          8          9         10
     6  C    0.000000
     7  C    4.384939   0.000000
     8  N    3.909794   2.494036   0.000000
     9  S    5.076167   1.733444   1.664607   0.000000
    10  C    2.428007   5.116215   5.699860   6.371958   0.000000
    11  N    3.509330   6.107712   6.831389   7.434461   1.162408
    12  C    1.426163   5.736923   5.009263   6.301738   2.836178
    13  N    2.587713   6.864751   5.995430   7.349618   3.609722
    14  C    5.449573   1.416040   3.876636   2.767765   5.646781
    15  N    6.435818   2.578302   5.022796   3.797715   6.306769
                   11         12         13         14         15
    11  N    0.000000
    12  C    3.613393   0.000000
    13  N    4.122555   1.162293   0.000000
    14  C    6.480188   6.800997   7.931563   0.000000
    15  N    7.006418   7.769948   8.891861   1.162367   0.000000
 Symmetry turned off by external request.
 Framework group  C1[X(C8N4S3)]
 Deg. of freedom    39
 Rotational constants (GHZ):      0.7722167      0.3388923      0.2463240
   357 basis functions,   759 primitive gaussians,   387 cartesian basis functions
    62 alpha electrons       62 beta electrons
       nuclear repulsion energy      1166.1400391330 Hartrees.
 IMHF & INEx in M05                  599485                  400514
 NAtoms=   15 NActive=   15 NUniq=   15 SFac= 1.00D+00 NAtFMM=   60 NAOKFM=F Big=F
 PrsmSu:  requested number of processors reduced to:  34 ShMem   1 Linda.
 ExpMin= 3.99D-02 ExpMax= 1.11D+05 ExpMxC= 1.07D+03 IAcc=3 IRadAn=         5 AccDes= 0.00D+00
 Harris functional with IExCor= 1009 and IRadAn=       5 diagonalized for initial guess.
 HarFok:  IExCor= 1009 AccDes= 0.00D+00 IRadAn=         5 IDoV= 1 UseB2=F ITyADJ=14
 ICtDFT=  3500011 ScaDFX=  1.000000  1.000000  1.000000  1.000000
 FoFCou: FMM=F IPFlag=           0 FMFlag=      100000 FMFlg1=           0
         NFxFlg=           0 DoJE=T BraDBF=F KetDBF=T FulRan=T
         wScrn=  0.000000 ICntrl=     500 IOpCl=  0 I1Cent=   200000004 NGrid=           0
         NMat0=    1 NMatS0=      1 NMatT0=    0 NMatD0=    1 NMtDS0=    0 NMtDT0=    0
 Symmetry not used in FoFCou.
 SCF Done:  E(RM05) =  -1724.76147206     A.U. after   17 cycles
            NFock= 17  Conv=0.52D-08     -V/T= 2.0061

 **********************************************************************

            Population analysis using the SCF density.

 **********************************************************************

 Alpha  occ. eigenvalues --  -90.56430 -90.53636 -90.53182 -15.08622 -15.05417
 Alpha  occ. eigenvalues --  -15.04969 -15.04934 -10.89945 -10.89826 -10.89736
 Alpha  occ. eigenvalues --  -10.88752 -10.87414 -10.84947 -10.84332 -10.84310
 Alpha  occ. eigenvalues --   -8.57525  -8.55036  -8.54609  -6.40062  -6.39712
 Alpha  occ. eigenvalues --   -6.39400  -6.37597  -6.37283  -6.37163  -6.36853
 Alpha  occ. eigenvalues --   -6.36822  -6.36393  -1.20533  -1.12895  -1.12139
 Alpha  occ. eigenvalues --   -1.11337  -1.07643  -1.03801  -0.98824  -0.97396
 Alpha  occ. eigenvalues --   -0.88003  -0.84555  -0.82236  -0.73687  -0.71296
 Alpha  occ. eigenvalues --   -0.67839  -0.64612  -0.59530  -0.57258  -0.55386
 Alpha  occ. eigenvalues --   -0.53385  -0.52648  -0.52243  -0.51890  -0.50883
 Alpha  occ. eigenvalues --   -0.50387  -0.49357  -0.48215  -0.46805  -0.46074
 Alpha  occ. eigenvalues --   -0.45933  -0.45296  -0.43720  -0.43113  -0.39488
 Alpha  occ. eigenvalues --   -0.37627  -0.33120
 Alpha virt. eigenvalues --   -0.09329  -0.08268  -0.02098  -0.01263  -0.00506
 Alpha virt. eigenvalues --   -0.00361   0.00153   0.01255   0.02021   0.02227
 Alpha virt. eigenvalues --    0.02394   0.02956   0.03189   0.04002   0.04275
 Alpha virt. eigenvalues --    0.04486   0.05428   0.06003   0.06296   0.07066
 Alpha virt. eigenvalues --    0.07270   0.07525   0.07708   0.08287   0.08489
 Alpha virt. eigenvalues --    0.09371   0.10093   0.10392   0.10524   0.10813
 Alpha virt. eigenvalues --    0.11288   0.11389   0.11977   0.12529   0.13226
 Alpha virt. eigenvalues --    0.13488   0.13936   0.14457   0.15077   0.15192
 Alpha virt. eigenvalues --    0.15902   0.16276   0.16677   0.16813   0.17184
 Alpha virt. eigenvalues --    0.17356   0.17842   0.18616   0.19042   0.19559
 Alpha virt. eigenvalues --    0.19869   0.20241   0.20684   0.20939   0.21268
 Alpha virt. eigenvalues --    0.21884   0.22208   0.22582   0.22822   0.23613
 Alpha virt. eigenvalues --    0.23746   0.24115   0.24372   0.24699   0.25259
 Alpha virt. eigenvalues --    0.25695   0.25853   0.26225   0.26625   0.26745
 Alpha virt. eigenvalues --    0.27073   0.28335   0.29193   0.29665   0.30370
 Alpha virt. eigenvalues --    0.30710   0.32418   0.33457   0.34154   0.34713
 Alpha virt. eigenvalues --    0.34949   0.35469   0.36121   0.36933   0.37594
 Alpha virt. eigenvalues --    0.38151   0.39574   0.40726   0.41168   0.42049
 Alpha virt. eigenvalues --    0.42120   0.43485   0.44132   0.45737   0.45974
 Alpha virt. eigenvalues --    0.46959   0.48550   0.49571   0.50236   0.50598
 Alpha virt. eigenvalues --    0.51523   0.51854   0.53528   0.54166   0.54421
 Alpha virt. eigenvalues --    0.54702   0.55465   0.55731   0.55834   0.56447
 Alpha virt. eigenvalues --    0.57772   0.58139   0.58553   0.59213   0.60310
 Alpha virt. eigenvalues --    0.60548   0.61100   0.61585   0.62105   0.62708
 Alpha virt. eigenvalues --    0.63717   0.64718   0.64954   0.66007   0.66557
 Alpha virt. eigenvalues --    0.67690   0.68187   0.68805   0.70106   0.70414
 Alpha virt. eigenvalues --    0.71045   0.72862   0.73469   0.73854   0.75375
 Alpha virt. eigenvalues --    0.75566   0.76456   0.77061   0.77552   0.77841
 Alpha virt. eigenvalues --    0.78245   0.79256   0.79760   0.79877   0.81109
 Alpha virt. eigenvalues --    0.81535   0.82548   0.83280   0.83956   0.84871
 Alpha virt. eigenvalues --    0.85698   0.85938   0.87124   0.87246   0.88402
 Alpha virt. eigenvalues --    0.88458   0.89345   0.89667   0.89830   0.90730
 Alpha virt. eigenvalues --    0.91171   0.91725   0.92830   0.93721   0.94367
 Alpha virt. eigenvalues --    0.95430   0.95564   0.97325   0.98745   0.99307
 Alpha virt. eigenvalues --    0.99844   1.01203   1.02849   1.03576   1.04747
 Alpha virt. eigenvalues --    1.05760   1.06745   1.08039   1.08540   1.09635
 Alpha virt. eigenvalues --    1.10233   1.11403   1.13198   1.13607   1.14404
 Alpha virt. eigenvalues --    1.15319   1.17099   1.18344   1.20285   1.20635
 Alpha virt. eigenvalues --    1.21609   1.22702   1.23936   1.24224   1.26560
 Alpha virt. eigenvalues --    1.27343   1.29757   1.30250   1.32270   1.34124
 Alpha virt. eigenvalues --    1.37312   1.40084   1.40259   1.41566   1.42730
 Alpha virt. eigenvalues --    1.43618   1.45024   1.46464   1.47273   1.49371
 Alpha virt. eigenvalues --    1.49823   1.50475   1.51643   1.51869   1.52335
 Alpha virt. eigenvalues --    1.53714   1.54194   1.55434   1.56136   1.56451
 Alpha virt. eigenvalues --    1.56789   1.58487   1.59723   1.60388   1.60515
 Alpha virt. eigenvalues --    1.62133   1.63283   1.64922   1.66028   1.67547
 Alpha virt. eigenvalues --    1.68614   1.69175   1.70470   1.71324   1.74152
 Alpha virt. eigenvalues --    1.76823   1.77077   1.79016   1.79377   1.81041
 Alpha virt. eigenvalues --    1.82959   1.85920   1.88149   1.89704   1.90608
 Alpha virt. eigenvalues --    1.91369   1.94485   1.95005   1.97393   2.00540
 Alpha virt. eigenvalues --    2.00827   2.05448   2.07034   2.08348   2.08476
 Alpha virt. eigenvalues --    2.10896   2.13938   2.18605   2.20234   2.24596
 Alpha virt. eigenvalues --    2.27647   2.30686   2.37025   2.37401   2.38002
 Alpha virt. eigenvalues --    2.38279   2.39369   2.39930   2.40470   2.42151
 Alpha virt. eigenvalues --    2.42562   2.43754   2.45056   2.51015   2.54995
 Alpha virt. eigenvalues --    2.61159   2.64122   2.68330   2.71900   2.73263
 Alpha virt. eigenvalues --    2.76309   2.78780   2.81841   2.94681   2.99730
 Alpha virt. eigenvalues --    3.01876   3.09945   3.11454   3.15939   3.17850
 Alpha virt. eigenvalues --    3.24293   3.27130   3.35295   3.59312   3.74895
          Condensed to atoms (all electrons):
 Mulliken charges:
               1
     1  C    0.619719
     2  C   -0.109300
     3  S    0.374018
     4  S    0.297112
     5  C    1.041043
     6  C    1.129786
     7  C    0.786915
     8  N   -1.083323
     9  S    0.557541
    10  C   -1.129826
    11  N   -0.168025
    12  C   -1.099322
    13  N   -0.180460
    14  C   -0.852972
    15  N   -0.182907
 Sum of Mulliken charges =  -0.00000
 Mulliken charges with hydrogens summed into heavy atoms:
               1
     1  C    0.619719
     2  C   -0.109300
     3  S    0.374018
     4  S    0.297112
     5  C    1.041043
     6  C    1.129786
     7  C    0.786915
     8  N   -1.083323
     9  S    0.557541
    10  C   -1.129826
    11  N   -0.168025
    12  C   -1.099322
    13  N   -0.180460
    14  C   -0.852972
    15  N   -0.182907
 Electronic spatial extent (au):  <R**2>=           4013.7190
 Charge=             -0.0000 electrons
 Dipole moment (field-independent basis, Debye):
    X=              3.0596    Y=             -3.4924    Z=              0.6262  Tot=              4.6851

 Test job not archived.
 1\1\GINC-CHIMERA-NODE60\SP\RM05\Gen\C8N4S3\CONNORNM\19-Jan-2019\0\\#T 
 M05/Gen test Massage SCF=(fermi,maxcyc=60)\\M05 opt\\0,1\C,0,0.9370384
 4,-0.2043385,-0.34830109\C,0,0.31964428,-1.30385036,0.31179342\S,0,0.6
 5534797,1.48933536,0.02671354\S,0,-0.87071845,-1.13950657,1.61203034\C
 ,0,-1.04520612,1.43023329,0.52545677\C,0,-1.64710621,0.38676226,1.1551
 619\C,0,1.8436314,-0.67113947,-1.27861785\N,0,0.68729892,-2.50848318,-
 0.05090462\S,0,1.86143943,-2.40369895,-1.2262051\C,0,-1.75352531,2.633
 98653,0.24199296\N,0,-2.28211132,3.64346613,0.01233933\C,0,-3.0134987,
 0.45986219,1.55711949\N,0,-4.11463458,0.48645771,1.92822402\C,0,2.6799
 5165,0.07622426,-2.1430161\N,0,3.38005039,0.67365084,-2.85297326\\Vers
 ion=AS64L-G09RevD.01\HF=-1724.7614721\RMSD=5.178e-09\Dipole=1.2037586,
 -1.3740065,0.2463796\Quadrupole=-7.5492622,1.9062872,5.642975,1.939249
 ,8.4379044,4.1955433\PG=C01 [X(C8N4S3)]\\@


 THERE ARE PEOPLE SO ADDICTED TO EXAGERATING THEY
 CAN'T TELL THE TRUTH WITHOUT LYING. -- FORTUNE COOKIE
 Job cpu time:       0 days  1 hours 47 minutes 37.2 seconds.
 File lengths (MBytes):  RWF=     58 Int=      0 D2E=      0 Chk=      6 Scr=      1
 Normal termination of Gaussian 09 at Sat Jan 19 11:18:42 2019.
