 Entering Gaussian System, Link 0=/data/szalewicgrp/connornm/opt/Gaussian/g09-M05-par/g09/g09
 AtFile(1): blind-aug.gbs
 Initial command:
 /data/szalewicgrp/connornm/opt/Gaussian/g09-M05-par/g09/l1.exe "/scratch/local/Gau-3093.inp" -scrdir="/scratch/local/"
 Entering Link 1 = /data/szalewicgrp/connornm/opt/Gaussian/g09-M05-par/g09/l1.exe PID=      3094.
  
 Copyright (c) 1988,1990,1992,1993,1995,1998,2003,2009,2013,
            Gaussian, Inc.  All Rights Reserved.
  
 This is part of the Gaussian(R) 09 program.  It is based on
 the Gaussian(R) 03 system (copyright 2003, Gaussian, Inc.),
 the Gaussian(R) 98 system (copyright 1998, Gaussian, Inc.),
 the Gaussian(R) 94 system (copyright 1995, Gaussian, Inc.),
 the Gaussian 92(TM) system (copyright 1992, Gaussian, Inc.),
 the Gaussian 90(TM) system (copyright 1990, Gaussian, Inc.),
 the Gaussian 88(TM) system (copyright 1988, Gaussian, Inc.),
 the Gaussian 86(TM) system (copyright 1986, Carnegie Mellon
 University), and the Gaussian 82(TM) system (copyright 1983,
 Carnegie Mellon University). Gaussian is a federally registered
 trademark of Gaussian, Inc.
  
 This software contains proprietary and confidential information,
 including trade secrets, belonging to Gaussian, Inc.
  
 This software is provided under written license and may be
 used, copied, transmitted, or stored only in accord with that
 written license.
  
 The following legend is applicable only to US Government
 contracts under FAR:
  
                    RESTRICTED RIGHTS LEGEND
  
 Use, reproduction and disclosure by the US Government is
 subject to restrictions as set forth in subparagraphs (a)
 and (c) of the Commercial Computer Software - Restricted
 Rights clause in FAR 52.227-19.
  
 Gaussian, Inc.
 340 Quinnipiac St., Bldg. 40, Wallingford CT 06492
  
  
 ---------------------------------------------------------------
 Warning -- This program may not be used in any manner that
 competes with the business of Gaussian, Inc. or will provide
 assistance to any competitor of Gaussian, Inc.  The licensee
 of this program is prohibited from giving any competitor of
 Gaussian, Inc. access to this program.  By using this program,
 the user acknowledges that Gaussian, Inc. is engaged in the
 business of creating and licensing software in the field of
 computational chemistry and represents and warrants to the
 licensee that it is not a competitor of Gaussian, Inc. and that
 it will not use this program in any manner prohibited above.
 ---------------------------------------------------------------
  

 Cite this work as:
 Gaussian 09, Revision D.01,
 M. J. Frisch, G. W. Trucks, H. B. Schlegel, G. E. Scuseria, 
 M. A. Robb, J. R. Cheeseman, G. Scalmani, V. Barone, B. Mennucci, 
 G. A. Petersson, H. Nakatsuji, M. Caricato, X. Li, H. P. Hratchian, 
 A. F. Izmaylov, J. Bloino, G. Zheng, J. L. Sonnenberg, M. Hada, 
 M. Ehara, K. Toyota, R. Fukuda, J. Hasegawa, M. Ishida, T. Nakajima, 
 Y. Honda, O. Kitao, H. Nakai, T. Vreven, J. A. Montgomery, Jr., 
 J. E. Peralta, F. Ogliaro, M. Bearpark, J. J. Heyd, E. Brothers, 
 K. N. Kudin, V. N. Staroverov, T. Keith, R. Kobayashi, J. Normand, 
 K. Raghavachari, A. Rendell, J. C. Burant, S. S. Iyengar, J. Tomasi, 
 M. Cossi, N. Rega, J. M. Millam, M. Klene, J. E. Knox, J. B. Cross, 
 V. Bakken, C. Adamo, J. Jaramillo, R. Gomperts, R. E. Stratmann, 
 O. Yazyev, A. J. Austin, R. Cammi, C. Pomelli, J. W. Ochterski, 
 R. L. Martin, K. Morokuma, V. G. Zakrzewski, G. A. Voth, 
 P. Salvador, J. J. Dannenberg, S. Dapprich, A. D. Daniels, 
 O. Farkas, J. B. Foresman, J. V. Ortiz, J. Cioslowski, 
 and D. J. Fox, Gaussian, Inc., Wallingford CT, 2013.
 
 ******************************************
 Gaussian 09:  AS64L-G09RevD.01 24-Apr-2013
                19-Jan-2019 
 ******************************************
 %Chk=BLIND01791_mB
 %Mem=1GB
 %NProcShared=48
 Will use up to   48 processors via shared memory.
 ---------------------------------------------
 #T M05/Gen test Massage SCF=(fermi,maxcyc=60)
 ---------------------------------------------
 -------
 M05 opt
 -------
 Symbolic Z-matrix:
 Charge =  0 Multiplicity = 1
 6                    -0.1001    0.12498   9.59229 
 6                    -0.26791  -1.22175   10.02124 
 16                   -0.50008   1.54759   10.54345 
 16                   -0.88459  -1.68628   11.6145 
 6                    -0.15043   0.95186   12.17654 
 6                    -0.30521  -0.33095   12.59857 
 6                     0.35701   0.14373   8.28999 
 7                     0.02415  -2.16858   9.16329 
 16                    0.50664  -1.48754   7.72305 
 6                     0.283     1.97799   13.06551 
 7                     0.6093    2.85243   13.75839 
 6                    -0.03953  -0.69701   13.9511 
 7                     0.13685  -1.03418   15.04934 
 6                     0.64548   1.26564   7.47559 
 7                     0.87827   2.17497   6.78999 
 
                    Distance matrix (angstroms):
                    1          2          3          4          5
     1  C    0.000000
     2  C    1.423315   0.000000
     3  S    1.757418   2.827694   0.000000
     4  S    2.825849   1.770477   3.428253   0.000000
     5  C    2.713774   3.063280   1.773167   2.795470   0.000000
     6  C    3.047557   2.727187   2.791121   1.772288   1.359281
     7  C    1.380327   2.291783   2.789903   3.992857   4.001979
     8  N    2.336642   1.310672   3.998700   2.658358   4.341342
     9  S    2.542129   2.439721   4.263822   4.137445   5.120151
    10  C    3.955208   4.450782   2.675676   4.110426   1.425163
    11  N    5.029770   5.597745   3.642685   5.237162   2.586817
    12  C    4.436049   3.971317   4.106384   2.674416   2.424897
    13  N    5.583831   5.047859   5.232040   3.642352   3.504263
    14  C    2.517432   3.674472   3.286888   5.309014   4.778168
    15  N    3.607292   4.826214   4.047461   6.425950   5.618639
                    6          7          8          9         10
     6  C    0.000000
     7  C    4.384939   0.000000
     8  N    3.909794   2.494036   0.000000
     9  S    5.076167   1.733444   1.664607   0.000000
    10  C    2.428007   5.116215   5.699860   6.371958   0.000000
    11  N    3.509330   6.107712   6.831389   7.434461   1.162408
    12  C    1.426163   5.736923   5.009263   6.301738   2.836178
    13  N    2.587713   6.864751   5.995430   7.349618   3.609722
    14  C    5.449573   1.416040   3.876636   2.767765   5.646781
    15  N    6.435818   2.578302   5.022796   3.797715   6.306769
                   11         12         13         14         15
    11  N    0.000000
    12  C    3.613393   0.000000
    13  N    4.122555   1.162293   0.000000
    14  C    6.480188   6.800997   7.931563   0.000000
    15  N    7.006418   7.769948   8.891861   1.162367   0.000000
 Symmetry turned off by external request.
 Framework group  C1[X(C8N4S3)]
 Deg. of freedom    39
 Rotational constants (GHZ):      0.7722167      0.3388923      0.2463240
   357 basis functions,   759 primitive gaussians,   387 cartesian basis functions
    62 alpha electrons       62 beta electrons
       nuclear repulsion energy      1166.1400392173 Hartrees.
 IMHF & INEx in M05                  599485                  400514
 NAtoms=   15 NActive=   15 NUniq=   15 SFac= 1.00D+00 NAtFMM=   60 NAOKFM=F Big=F
 PrsmSu:  requested number of processors reduced to:  34 ShMem   1 Linda.
 ExpMin= 3.99D-02 ExpMax= 1.11D+05 ExpMxC= 1.07D+03 IAcc=3 IRadAn=         5 AccDes= 0.00D+00
 Harris functional with IExCor= 1009 and IRadAn=       5 diagonalized for initial guess.
 HarFok:  IExCor= 1009 AccDes= 0.00D+00 IRadAn=         5 IDoV= 1 UseB2=F ITyADJ=14
 ICtDFT=  3500011 ScaDFX=  1.000000  1.000000  1.000000  1.000000
 FoFCou: FMM=F IPFlag=           0 FMFlag=      100000 FMFlg1=           0
         NFxFlg=           0 DoJE=T BraDBF=F KetDBF=T FulRan=T
         wScrn=  0.000000 ICntrl=     500 IOpCl=  0 I1Cent=   200000004 NGrid=           0
         NMat0=    1 NMatS0=      1 NMatT0=    0 NMatD0=    1 NMtDS0=    0 NMtDT0=    0
 Symmetry not used in FoFCou.
 SCF Done:  E(RM05) =  -1724.76146423     A.U. after   17 cycles
            NFock= 17  Conv=0.51D-08     -V/T= 2.0061

 **********************************************************************

            Population analysis using the SCF density.

 **********************************************************************

 Alpha  occ. eigenvalues --  -90.56431 -90.53635 -90.53182 -15.08623 -15.05417
 Alpha  occ. eigenvalues --  -15.04968 -15.04934 -10.89945 -10.89826 -10.89736
 Alpha  occ. eigenvalues --  -10.88752 -10.87414 -10.84946 -10.84331 -10.84310
 Alpha  occ. eigenvalues --   -8.57526  -8.55035  -8.54609  -6.40064  -6.39713
 Alpha  occ. eigenvalues --   -6.39401  -6.37596  -6.37282  -6.37162  -6.36852
 Alpha  occ. eigenvalues --   -6.36821  -6.36392  -1.20534  -1.12895  -1.12139
 Alpha  occ. eigenvalues --   -1.11337  -1.07643  -1.03801  -0.98824  -0.97396
 Alpha  occ. eigenvalues --   -0.88002  -0.84555  -0.82236  -0.73687  -0.71297
 Alpha  occ. eigenvalues --   -0.67839  -0.64612  -0.59530  -0.57258  -0.55386
 Alpha  occ. eigenvalues --   -0.53385  -0.52648  -0.52242  -0.51890  -0.50883
 Alpha  occ. eigenvalues --   -0.50387  -0.49356  -0.48215  -0.46805  -0.46074
 Alpha  occ. eigenvalues --   -0.45933  -0.45296  -0.43720  -0.43113  -0.39488
 Alpha  occ. eigenvalues --   -0.37628  -0.33119
 Alpha virt. eigenvalues --   -0.09329  -0.08269  -0.02099  -0.01263  -0.00503
 Alpha virt. eigenvalues --   -0.00362   0.00153   0.01254   0.02019   0.02229
 Alpha virt. eigenvalues --    0.02394   0.02957   0.03189   0.04002   0.04277
 Alpha virt. eigenvalues --    0.04486   0.05429   0.06008   0.06299   0.07067
 Alpha virt. eigenvalues --    0.07272   0.07523   0.07708   0.08288   0.08491
 Alpha virt. eigenvalues --    0.09377   0.10094   0.10393   0.10529   0.10808
 Alpha virt. eigenvalues --    0.11287   0.11391   0.11979   0.12527   0.13227
 Alpha virt. eigenvalues --    0.13486   0.13938   0.14457   0.15077   0.15191
 Alpha virt. eigenvalues --    0.15904   0.16273   0.16675   0.16811   0.17188
 Alpha virt. eigenvalues --    0.17364   0.17840   0.18621   0.19052   0.19565
 Alpha virt. eigenvalues --    0.19861   0.20239   0.20681   0.20943   0.21266
 Alpha virt. eigenvalues --    0.21874   0.22205   0.22584   0.22819   0.23615
 Alpha virt. eigenvalues --    0.23748   0.24112   0.24371   0.24703   0.25262
 Alpha virt. eigenvalues --    0.25697   0.25845   0.26222   0.26627   0.26748
 Alpha virt. eigenvalues --    0.27063   0.28336   0.29199   0.29665   0.30366
 Alpha virt. eigenvalues --    0.30715   0.32422   0.33454   0.34151   0.34717
 Alpha virt. eigenvalues --    0.34947   0.35472   0.36122   0.36936   0.37593
 Alpha virt. eigenvalues --    0.38152   0.39580   0.40728   0.41169   0.42049
 Alpha virt. eigenvalues --    0.42122   0.43485   0.44139   0.45738   0.45981
 Alpha virt. eigenvalues --    0.46961   0.48553   0.49572   0.50233   0.50588
 Alpha virt. eigenvalues --    0.51524   0.51857   0.53525   0.54165   0.54425
 Alpha virt. eigenvalues --    0.54699   0.55463   0.55729   0.55836   0.56452
 Alpha virt. eigenvalues --    0.57763   0.58139   0.58556   0.59215   0.60308
 Alpha virt. eigenvalues --    0.60551   0.61097   0.61587   0.62102   0.62707
 Alpha virt. eigenvalues --    0.63707   0.64716   0.64953   0.66005   0.66557
 Alpha virt. eigenvalues --    0.67687   0.68190   0.68805   0.70108   0.70415
 Alpha virt. eigenvalues --    0.71049   0.72864   0.73471   0.73855   0.75372
 Alpha virt. eigenvalues --    0.75568   0.76458   0.77061   0.77550   0.77839
 Alpha virt. eigenvalues --    0.78244   0.79255   0.79759   0.79881   0.81111
 Alpha virt. eigenvalues --    0.81534   0.82547   0.83274   0.83958   0.84872
 Alpha virt. eigenvalues --    0.85698   0.85939   0.87124   0.87250   0.88404
 Alpha virt. eigenvalues --    0.88459   0.89344   0.89666   0.89832   0.90731
 Alpha virt. eigenvalues --    0.91172   0.91722   0.92832   0.93724   0.94367
 Alpha virt. eigenvalues --    0.95435   0.95565   0.97328   0.98745   0.99312
 Alpha virt. eigenvalues --    0.99845   1.01207   1.02848   1.03578   1.04751
 Alpha virt. eigenvalues --    1.05759   1.06744   1.08040   1.08539   1.09636
 Alpha virt. eigenvalues --    1.10232   1.11401   1.13196   1.13605   1.14404
 Alpha virt. eigenvalues --    1.15321   1.17101   1.18342   1.20286   1.20629
 Alpha virt. eigenvalues --    1.21611   1.22701   1.23937   1.24222   1.26558
 Alpha virt. eigenvalues --    1.27344   1.29759   1.30250   1.32271   1.34123
 Alpha virt. eigenvalues --    1.37311   1.40079   1.40256   1.41568   1.42729
 Alpha virt. eigenvalues --    1.43614   1.45025   1.46465   1.47273   1.49370
 Alpha virt. eigenvalues --    1.49823   1.50476   1.51640   1.51868   1.52333
 Alpha virt. eigenvalues --    1.53716   1.54193   1.55429   1.56138   1.56452
 Alpha virt. eigenvalues --    1.56790   1.58487   1.59727   1.60389   1.60518
 Alpha virt. eigenvalues --    1.62128   1.63282   1.64923   1.66027   1.67545
 Alpha virt. eigenvalues --    1.68611   1.69174   1.70469   1.71323   1.74148
 Alpha virt. eigenvalues --    1.76825   1.77079   1.79014   1.79376   1.81037
 Alpha virt. eigenvalues --    1.82957   1.85917   1.88146   1.89705   1.90609
 Alpha virt. eigenvalues --    1.91366   1.94485   1.95004   1.97394   2.00537
 Alpha virt. eigenvalues --    2.00827   2.05448   2.07035   2.08348   2.08471
 Alpha virt. eigenvalues --    2.10896   2.13936   2.18607   2.20231   2.24593
 Alpha virt. eigenvalues --    2.27648   2.30685   2.37026   2.37402   2.38002
 Alpha virt. eigenvalues --    2.38280   2.39370   2.39930   2.40471   2.42150
 Alpha virt. eigenvalues --    2.42561   2.43754   2.45057   2.51023   2.54995
 Alpha virt. eigenvalues --    2.61160   2.64127   2.68330   2.71899   2.73263
 Alpha virt. eigenvalues --    2.76308   2.78779   2.81841   2.94680   2.99730
 Alpha virt. eigenvalues --    3.01876   3.09943   3.11451   3.15939   3.17851
 Alpha virt. eigenvalues --    3.24292   3.27127   3.35293   3.59306   3.74890
          Condensed to atoms (all electrons):
 Mulliken charges:
               1
     1  C    0.619940
     2  C   -0.108826
     3  S    0.375139
     4  S    0.296298
     5  C    1.038621
     6  C    1.132069
     7  C    0.786682
     8  N   -1.083477
     9  S    0.557124
    10  C   -1.130215
    11  N   -0.167760
    12  C   -1.099610
    13  N   -0.180297
    14  C   -0.852697
    15  N   -0.182990
 Sum of Mulliken charges =  -0.00000
 Mulliken charges with hydrogens summed into heavy atoms:
               1
     1  C    0.619940
     2  C   -0.108826
     3  S    0.375139
     4  S    0.296298
     5  C    1.038621
     6  C    1.132069
     7  C    0.786682
     8  N   -1.083477
     9  S    0.557124
    10  C   -1.130215
    11  N   -0.167760
    12  C   -1.099610
    13  N   -0.180297
    14  C   -0.852697
    15  N   -0.182990
 Electronic spatial extent (au):  <R**2>=          53827.1505
 Charge=              0.0000 electrons
 Dipole moment (field-independent basis, Debye):
    X=             -1.5471    Y=             -2.6832    Z=             -3.5164  Tot=              4.6859

 Test job not archived.
 1\1\GINC-CHIMERA-NODE27\SP\RM05\Gen\C8N4S3\CONNORNM\19-Jan-2019\0\\#T 
 M05/Gen test Massage SCF=(fermi,maxcyc=60)\\M05 opt\\0,1\C,0,-0.100096
 66,0.1249785,9.59229472\C,0,-0.26790969,-1.22174887,10.02123625\S,0,-0
 .50008187,1.5475901,10.54345439\S,0,-0.88459476,-1.6862812,11.61450257
 \C,0,-0.15042548,0.95185501,12.17653803\C,0,-0.30520747,-0.33094623,12
 .59856597\C,0,0.35701484,0.14372512,8.28998874\N,0,0.02415088,-2.16858
 118,9.16329148\S,0,0.50663813,-1.48753735,7.72304766\C,0,0.28299734,1.
 97799169,13.06551374\N,0,0.60930217,2.85242823,13.75839102\C,0,-0.0395
 2631,-0.6970071,13.95110243\N,0,0.1368533,-1.03417586,15.04934357\C,0,
 0.64548149,1.26564421,7.47558528\N,0,0.87827022,2.17496601,6.78999124\
 \Version=AS64L-G09RevD.01\HF=-1724.7614642\RMSD=5.120e-09\Dipole=-0.60
 86665,-1.0556332,-1.3834742\Quadrupole=29.187428,17.9198294,-47.107257
 5,-3.1656374,-13.9597668,-17.0758208\PG=C01 [X(C8N4S3)]\\@


 The lyf so short, the craft so long to lerne.
                             -- Chaucer
 Job cpu time:       0 days  1 hours 51 minutes 14.1 seconds.
 File lengths (MBytes):  RWF=     58 Int=      0 D2E=      0 Chk=      6 Scr=      1
 Normal termination of Gaussian 09 at Sat Jan 19 10:43:27 2019.
