 Entering Gaussian System, Link 0=/data/szalewicgrp/connornm/opt/Gaussian/g09-M05-par/g09/g09
 AtFile(1): blind-aug.gbs
 Initial command:
 /data/szalewicgrp/connornm/opt/Gaussian/g09-M05-par/g09/l1.exe "/scratch/local/Gau-21898.inp" -scrdir="/scratch/local/"
 Entering Link 1 = /data/szalewicgrp/connornm/opt/Gaussian/g09-M05-par/g09/l1.exe PID=     21899.
  
 Copyright (c) 1988,1990,1992,1993,1995,1998,2003,2009,2013,
            Gaussian, Inc.  All Rights Reserved.
  
 This is part of the Gaussian(R) 09 program.  It is based on
 the Gaussian(R) 03 system (copyright 2003, Gaussian, Inc.),
 the Gaussian(R) 98 system (copyright 1998, Gaussian, Inc.),
 the Gaussian(R) 94 system (copyright 1995, Gaussian, Inc.),
 the Gaussian 92(TM) system (copyright 1992, Gaussian, Inc.),
 the Gaussian 90(TM) system (copyright 1990, Gaussian, Inc.),
 the Gaussian 88(TM) system (copyright 1988, Gaussian, Inc.),
 the Gaussian 86(TM) system (copyright 1986, Carnegie Mellon
 University), and the Gaussian 82(TM) system (copyright 1983,
 Carnegie Mellon University). Gaussian is a federally registered
 trademark of Gaussian, Inc.
  
 This software contains proprietary and confidential information,
 including trade secrets, belonging to Gaussian, Inc.
  
 This software is provided under written license and may be
 used, copied, transmitted, or stored only in accord with that
 written license.
  
 The following legend is applicable only to US Government
 contracts under FAR:
  
                    RESTRICTED RIGHTS LEGEND
  
 Use, reproduction and disclosure by the US Government is
 subject to restrictions as set forth in subparagraphs (a)
 and (c) of the Commercial Computer Software - Restricted
 Rights clause in FAR 52.227-19.
  
 Gaussian, Inc.
 340 Quinnipiac St., Bldg. 40, Wallingford CT 06492
  
  
 ---------------------------------------------------------------
 Warning -- This program may not be used in any manner that
 competes with the business of Gaussian, Inc. or will provide
 assistance to any competitor of Gaussian, Inc.  The licensee
 of this program is prohibited from giving any competitor of
 Gaussian, Inc. access to this program.  By using this program,
 the user acknowledges that Gaussian, Inc. is engaged in the
 business of creating and licensing software in the field of
 computational chemistry and represents and warrants to the
 licensee that it is not a competitor of Gaussian, Inc. and that
 it will not use this program in any manner prohibited above.
 ---------------------------------------------------------------
  

 Cite this work as:
 Gaussian 09, Revision D.01,
 M. J. Frisch, G. W. Trucks, H. B. Schlegel, G. E. Scuseria, 
 M. A. Robb, J. R. Cheeseman, G. Scalmani, V. Barone, B. Mennucci, 
 G. A. Petersson, H. Nakatsuji, M. Caricato, X. Li, H. P. Hratchian, 
 A. F. Izmaylov, J. Bloino, G. Zheng, J. L. Sonnenberg, M. Hada, 
 M. Ehara, K. Toyota, R. Fukuda, J. Hasegawa, M. Ishida, T. Nakajima, 
 Y. Honda, O. Kitao, H. Nakai, T. Vreven, J. A. Montgomery, Jr., 
 J. E. Peralta, F. Ogliaro, M. Bearpark, J. J. Heyd, E. Brothers, 
 K. N. Kudin, V. N. Staroverov, T. Keith, R. Kobayashi, J. Normand, 
 K. Raghavachari, A. Rendell, J. C. Burant, S. S. Iyengar, J. Tomasi, 
 M. Cossi, N. Rega, J. M. Millam, M. Klene, J. E. Knox, J. B. Cross, 
 V. Bakken, C. Adamo, J. Jaramillo, R. Gomperts, R. E. Stratmann, 
 O. Yazyev, A. J. Austin, R. Cammi, C. Pomelli, J. W. Ochterski, 
 R. L. Martin, K. Morokuma, V. G. Zakrzewski, G. A. Voth, 
 P. Salvador, J. J. Dannenberg, S. Dapprich, A. D. Daniels, 
 O. Farkas, J. B. Foresman, J. V. Ortiz, J. Cioslowski, 
 and D. J. Fox, Gaussian, Inc., Wallingford CT, 2013.
 
 ******************************************
 Gaussian 09:  AS64L-G09RevD.01 24-Apr-2013
                19-Jan-2019 
 ******************************************
 %Chk=BLIND02386_mA
 %Mem=1GB
 %NProcShared=48
 Will use up to   48 processors via shared memory.
 ---------------------------------------------
 #T M05/Gen test Massage SCF=(fermi,maxcyc=60)
 ---------------------------------------------
 -------
 M05 opt
 -------
 Symbolic Z-matrix:
 Charge =  0 Multiplicity = 1
 6                     0.4517    0.8978   -0.17615 
 6                     0.56483  -0.02138  -1.25695 
 16                    0.35183   0.45625   1.52196 
 16                    0.59134  -1.78116  -1.06446 
 6                    -0.52025  -1.08311   1.40369 
 6                    -0.42211  -1.96886   0.37731 
 6                     0.50435   2.19005  -0.65846 
 7                     0.68984   0.47783  -2.46237 
 16                    0.71303   2.14016  -2.37857 
 6                    -1.33548  -1.35308   2.54106 
 7                    -1.9666   -1.53992   3.49917 
 6                    -1.1331   -3.2049    0.40244 
 7                    -1.67055  -4.23544   0.39401 
 6                     0.44005   3.40324   0.069 
 7                     0.39823   4.4086    0.6509 
 
                    Distance matrix (angstroms):
                    1          2          3          4          5
     1  C    0.000000
     2  C    1.423315   0.000000
     3  S    1.757418   2.827694   0.000000
     4  S    2.825849   1.770477   3.428253   0.000000
     5  C    2.713774   3.063280   1.773167   2.795470   0.000000
     6  C    3.047557   2.727187   2.791121   1.772288   1.359281
     7  C    1.380327   2.291783   2.789903   3.992857   4.001979
     8  N    2.336642   1.310672   3.998700   2.658358   4.341342
     9  S    2.542129   2.439721   4.263822   4.137445   5.120151
    10  C    3.955208   4.450782   2.675676   4.110426   1.425163
    11  N    5.029770   5.597745   3.642685   5.237162   2.586817
    12  C    4.436049   3.971317   4.106384   2.674416   2.424897
    13  N    5.583831   5.047859   5.232040   3.642352   3.504263
    14  C    2.517432   3.674472   3.286888   5.309014   4.778168
    15  N    3.607292   4.826214   4.047461   6.425950   5.618639
                    6          7          8          9         10
     6  C    0.000000
     7  C    4.384939   0.000000
     8  N    3.909794   2.494036   0.000000
     9  S    5.076167   1.733444   1.664607   0.000000
    10  C    2.428007   5.116215   5.699860   6.371958   0.000000
    11  N    3.509330   6.107712   6.831389   7.434461   1.162408
    12  C    1.426163   5.736923   5.009263   6.301738   2.836178
    13  N    2.587713   6.864751   5.995430   7.349618   3.609722
    14  C    5.449573   1.416040   3.876636   2.767765   5.646781
    15  N    6.435818   2.578302   5.022796   3.797715   6.306769
                   11         12         13         14         15
    11  N    0.000000
    12  C    3.613393   0.000000
    13  N    4.122555   1.162293   0.000000
    14  C    6.480188   6.800997   7.931563   0.000000
    15  N    7.006418   7.769948   8.891861   1.162367   0.000000
 Symmetry turned off by external request.
 Framework group  C1[X(C8N4S3)]
 Deg. of freedom    39
 Rotational constants (GHZ):      0.7722167      0.3388923      0.2463240
   357 basis functions,   759 primitive gaussians,   387 cartesian basis functions
    62 alpha electrons       62 beta electrons
       nuclear repulsion energy      1166.1400392106 Hartrees.
 IMHF & INEx in M05                  599485                  400514
 NAtoms=   15 NActive=   15 NUniq=   15 SFac= 1.00D+00 NAtFMM=   60 NAOKFM=F Big=F
 PrsmSu:  requested number of processors reduced to:  34 ShMem   1 Linda.
 ExpMin= 3.99D-02 ExpMax= 1.11D+05 ExpMxC= 1.07D+03 IAcc=3 IRadAn=         5 AccDes= 0.00D+00
 Harris functional with IExCor= 1009 and IRadAn=       5 diagonalized for initial guess.
 HarFok:  IExCor= 1009 AccDes= 0.00D+00 IRadAn=         5 IDoV= 1 UseB2=F ITyADJ=14
 ICtDFT=  3500011 ScaDFX=  1.000000  1.000000  1.000000  1.000000
 FoFCou: FMM=F IPFlag=           0 FMFlag=      100000 FMFlg1=           0
         NFxFlg=           0 DoJE=T BraDBF=F KetDBF=T FulRan=T
         wScrn=  0.000000 ICntrl=     500 IOpCl=  0 I1Cent=   200000004 NGrid=           0
         NMat0=    1 NMatS0=      1 NMatT0=    0 NMatD0=    1 NMtDS0=    0 NMtDT0=    0
 Symmetry not used in FoFCou.
 SCF Done:  E(RM05) =  -1724.76149226     A.U. after   17 cycles
            NFock= 17  Conv=0.51D-08     -V/T= 2.0061

 **********************************************************************

            Population analysis using the SCF density.

 **********************************************************************

 Alpha  occ. eigenvalues --  -90.56431 -90.53635 -90.53181 -15.08623 -15.05417
 Alpha  occ. eigenvalues --  -15.04968 -15.04934 -10.89944 -10.89826 -10.89736
 Alpha  occ. eigenvalues --  -10.88752 -10.87414 -10.84947 -10.84331 -10.84311
 Alpha  occ. eigenvalues --   -8.57526  -8.55034  -8.54609  -6.40063  -6.39713
 Alpha  occ. eigenvalues --   -6.39401  -6.37596  -6.37282  -6.37162  -6.36852
 Alpha  occ. eigenvalues --   -6.36821  -6.36392  -1.20534  -1.12895  -1.12139
 Alpha  occ. eigenvalues --   -1.11337  -1.07643  -1.03801  -0.98824  -0.97396
 Alpha  occ. eigenvalues --   -0.88003  -0.84555  -0.82236  -0.73686  -0.71296
 Alpha  occ. eigenvalues --   -0.67839  -0.64612  -0.59530  -0.57258  -0.55386
 Alpha  occ. eigenvalues --   -0.53385  -0.52648  -0.52242  -0.51890  -0.50883
 Alpha  occ. eigenvalues --   -0.50387  -0.49356  -0.48215  -0.46805  -0.46074
 Alpha  occ. eigenvalues --   -0.45933  -0.45296  -0.43720  -0.43113  -0.39488
 Alpha  occ. eigenvalues --   -0.37628  -0.33120
 Alpha virt. eigenvalues --   -0.09329  -0.08269  -0.02098  -0.01264  -0.00504
 Alpha virt. eigenvalues --   -0.00362   0.00153   0.01254   0.02020   0.02228
 Alpha virt. eigenvalues --    0.02395   0.02956   0.03187   0.04004   0.04277
 Alpha virt. eigenvalues --    0.04486   0.05428   0.06006   0.06299   0.07068
 Alpha virt. eigenvalues --    0.07270   0.07525   0.07707   0.08290   0.08492
 Alpha virt. eigenvalues --    0.09374   0.10094   0.10395   0.10523   0.10812
 Alpha virt. eigenvalues --    0.11288   0.11391   0.11978   0.12527   0.13227
 Alpha virt. eigenvalues --    0.13488   0.13936   0.14455   0.15075   0.15191
 Alpha virt. eigenvalues --    0.15902   0.16273   0.16680   0.16811   0.17188
 Alpha virt. eigenvalues --    0.17355   0.17841   0.18612   0.19052   0.19561
 Alpha virt. eigenvalues --    0.19860   0.20235   0.20686   0.20946   0.21266
 Alpha virt. eigenvalues --    0.21884   0.22206   0.22584   0.22821   0.23614
 Alpha virt. eigenvalues --    0.23749   0.24115   0.24369   0.24702   0.25260
 Alpha virt. eigenvalues --    0.25694   0.25852   0.26229   0.26621   0.26746
 Alpha virt. eigenvalues --    0.27067   0.28332   0.29195   0.29661   0.30363
 Alpha virt. eigenvalues --    0.30711   0.32417   0.33456   0.34154   0.34714
 Alpha virt. eigenvalues --    0.34950   0.35469   0.36121   0.36938   0.37595
 Alpha virt. eigenvalues --    0.38151   0.39580   0.40729   0.41170   0.42053
 Alpha virt. eigenvalues --    0.42115   0.43486   0.44137   0.45736   0.45985
 Alpha virt. eigenvalues --    0.46962   0.48552   0.49574   0.50231   0.50592
 Alpha virt. eigenvalues --    0.51526   0.51858   0.53528   0.54170   0.54421
 Alpha virt. eigenvalues --    0.54700   0.55468   0.55735   0.55837   0.56451
 Alpha virt. eigenvalues --    0.57772   0.58140   0.58557   0.59216   0.60311
 Alpha virt. eigenvalues --    0.60551   0.61102   0.61587   0.62104   0.62710
 Alpha virt. eigenvalues --    0.63720   0.64718   0.64954   0.66006   0.66560
 Alpha virt. eigenvalues --    0.67686   0.68189   0.68804   0.70107   0.70418
 Alpha virt. eigenvalues --    0.71048   0.72861   0.73468   0.73852   0.75370
 Alpha virt. eigenvalues --    0.75562   0.76456   0.77064   0.77554   0.77843
 Alpha virt. eigenvalues --    0.78245   0.79254   0.79760   0.79884   0.81107
 Alpha virt. eigenvalues --    0.81540   0.82546   0.83275   0.83959   0.84871
 Alpha virt. eigenvalues --    0.85697   0.85941   0.87125   0.87252   0.88400
 Alpha virt. eigenvalues --    0.88458   0.89346   0.89667   0.89830   0.90729
 Alpha virt. eigenvalues --    0.91171   0.91724   0.92829   0.93719   0.94368
 Alpha virt. eigenvalues --    0.95433   0.95562   0.97326   0.98743   0.99313
 Alpha virt. eigenvalues --    0.99848   1.01204   1.02847   1.03574   1.04751
 Alpha virt. eigenvalues --    1.05758   1.06746   1.08037   1.08541   1.09633
 Alpha virt. eigenvalues --    1.10233   1.11402   1.13199   1.13607   1.14405
 Alpha virt. eigenvalues --    1.15324   1.17099   1.18346   1.20285   1.20632
 Alpha virt. eigenvalues --    1.21612   1.22702   1.23937   1.24221   1.26562
 Alpha virt. eigenvalues --    1.27346   1.29759   1.30248   1.32269   1.34125
 Alpha virt. eigenvalues --    1.37311   1.40084   1.40255   1.41566   1.42730
 Alpha virt. eigenvalues --    1.43616   1.45023   1.46463   1.47272   1.49369
 Alpha virt. eigenvalues --    1.49820   1.50474   1.51640   1.51867   1.52332
 Alpha virt. eigenvalues --    1.53717   1.54192   1.55430   1.56140   1.56448
 Alpha virt. eigenvalues --    1.56791   1.58488   1.59727   1.60387   1.60518
 Alpha virt. eigenvalues --    1.62129   1.63279   1.64922   1.66027   1.67545
 Alpha virt. eigenvalues --    1.68615   1.69174   1.70472   1.71321   1.74153
 Alpha virt. eigenvalues --    1.76825   1.77078   1.79016   1.79375   1.81043
 Alpha virt. eigenvalues --    1.82962   1.85919   1.88150   1.89704   1.90608
 Alpha virt. eigenvalues --    1.91372   1.94486   1.95004   1.97392   2.00539
 Alpha virt. eigenvalues --    2.00829   2.05449   2.07037   2.08352   2.08471
 Alpha virt. eigenvalues --    2.10895   2.13937   2.18609   2.20234   2.24591
 Alpha virt. eigenvalues --    2.27643   2.30686   2.37027   2.37401   2.38001
 Alpha virt. eigenvalues --    2.38279   2.39370   2.39930   2.40470   2.42151
 Alpha virt. eigenvalues --    2.42559   2.43755   2.45057   2.51016   2.54995
 Alpha virt. eigenvalues --    2.61153   2.64129   2.68330   2.71900   2.73263
 Alpha virt. eigenvalues --    2.76309   2.78780   2.81840   2.94679   2.99731
 Alpha virt. eigenvalues --    3.01878   3.09942   3.11449   3.15939   3.17850
 Alpha virt. eigenvalues --    3.24295   3.27129   3.35292   3.59302   3.74889
          Condensed to atoms (all electrons):
 Mulliken charges:
               1
     1  C    0.618240
     2  C   -0.107278
     3  S    0.375090
     4  S    0.296620
     5  C    1.038910
     6  C    1.132058
     7  C    0.786606
     8  N   -1.083637
     9  S    0.557402
    10  C   -1.129360
    11  N   -0.168083
    12  C   -1.100025
    13  N   -0.180540
    14  C   -0.853028
    15  N   -0.182975
 Sum of Mulliken charges =  -0.00000
 Mulliken charges with hydrogens summed into heavy atoms:
               1
     1  C    0.618240
     2  C   -0.107278
     3  S    0.375090
     4  S    0.296620
     5  C    1.038910
     6  C    1.132058
     7  C    0.786606
     8  N   -1.083637
     9  S    0.557402
    10  C   -1.129360
    11  N   -0.168083
    12  C   -1.100025
    13  N   -0.180540
    14  C   -0.853028
    15  N   -0.182975
 Electronic spatial extent (au):  <R**2>=           4013.7185
 Charge=             -0.0000 electrons
 Dipole moment (field-independent basis, Debye):
    X=              2.9515    Y=              1.6218    Z=             -3.2577  Tot=              4.6855

 Test job not archived.
 1\1\GINC-CHIMERA-NODE28\SP\RM05\Gen\C8N4S3\CONNORNM\19-Jan-2019\0\\#T 
 M05/Gen test Massage SCF=(fermi,maxcyc=60)\\M05 opt\\0,1\C,0,0.4516959
 2,0.89780367,-0.17614842\C,0,0.56482587,-0.02137641,-1.25695193\S,0,0.
 35182823,0.45625227,1.52196096\S,0,0.5913367,-1.78115782,-1.06445543\C
 ,0,-0.52024564,-1.0831054,1.40369338\C,0,-0.42211076,-1.96885761,0.377
 31304\C,0,0.50435137,2.19005239,-0.65845939\N,0,0.6898444,0.47782515,-
 2.46236812\S,0,0.71302722,2.14016022,-2.37857326\C,0,-1.33548185,-1.35
 307652,2.54105663\N,0,-1.96659955,-1.53992104,3.4991655\C,0,-1.1330987
 ,-3.20490244,0.4024381\N,0,-1.67054847,-4.23543765,0.39400821\C,0,0.44
 004602,3.40324363,0.06900215\N,0,0.39822604,4.40859897,0.65090218\\Ver
 sion=AS64L-G09RevD.01\HF=-1724.7614923\RMSD=5.127e-09\Dipole=1.1612156
 ,0.6380807,-1.2816678\Quadrupole=6.373966,-9.1796026,2.8056366,-6.6811
 792,4.8125753,-2.1460611\PG=C01 [X(C8N4S3)]\\@


 ERWIN WITH HIS PSI CAN DO
 CALCULATIONS QUITE A FEW.
 BUT ONE THING HAS NOT BEEN SEEN
 JUST WHAT DOES PSI REALLY MEAN.
 -- WALTER HUCKEL, TRANS. BY FELIX BLOCH
 Job cpu time:       0 days  1 hours 56 minutes 50.8 seconds.
 File lengths (MBytes):  RWF=     58 Int=      0 D2E=      0 Chk=      6 Scr=      1
 Normal termination of Gaussian 09 at Sat Jan 19 10:59:45 2019.
