 Entering Gaussian System, Link 0=/data/szalewicgrp/connornm/opt/Gaussian/g09-M05-par/g09/g09
 AtFile(1): blind-aug.gbs
 Initial command:
 /data/szalewicgrp/connornm/opt/Gaussian/g09-M05-par/g09/l1.exe "/scratch/local/Gau-40260.inp" -scrdir="/scratch/local/"
 Entering Link 1 = /data/szalewicgrp/connornm/opt/Gaussian/g09-M05-par/g09/l1.exe PID=     40261.
  
 Copyright (c) 1988,1990,1992,1993,1995,1998,2003,2009,2013,
            Gaussian, Inc.  All Rights Reserved.
  
 This is part of the Gaussian(R) 09 program.  It is based on
 the Gaussian(R) 03 system (copyright 2003, Gaussian, Inc.),
 the Gaussian(R) 98 system (copyright 1998, Gaussian, Inc.),
 the Gaussian(R) 94 system (copyright 1995, Gaussian, Inc.),
 the Gaussian 92(TM) system (copyright 1992, Gaussian, Inc.),
 the Gaussian 90(TM) system (copyright 1990, Gaussian, Inc.),
 the Gaussian 88(TM) system (copyright 1988, Gaussian, Inc.),
 the Gaussian 86(TM) system (copyright 1986, Carnegie Mellon
 University), and the Gaussian 82(TM) system (copyright 1983,
 Carnegie Mellon University). Gaussian is a federally registered
 trademark of Gaussian, Inc.
  
 This software contains proprietary and confidential information,
 including trade secrets, belonging to Gaussian, Inc.
  
 This software is provided under written license and may be
 used, copied, transmitted, or stored only in accord with that
 written license.
  
 The following legend is applicable only to US Government
 contracts under FAR:
  
                    RESTRICTED RIGHTS LEGEND
  
 Use, reproduction and disclosure by the US Government is
 subject to restrictions as set forth in subparagraphs (a)
 and (c) of the Commercial Computer Software - Restricted
 Rights clause in FAR 52.227-19.
  
 Gaussian, Inc.
 340 Quinnipiac St., Bldg. 40, Wallingford CT 06492
  
  
 ---------------------------------------------------------------
 Warning -- This program may not be used in any manner that
 competes with the business of Gaussian, Inc. or will provide
 assistance to any competitor of Gaussian, Inc.  The licensee
 of this program is prohibited from giving any competitor of
 Gaussian, Inc. access to this program.  By using this program,
 the user acknowledges that Gaussian, Inc. is engaged in the
 business of creating and licensing software in the field of
 computational chemistry and represents and warrants to the
 licensee that it is not a competitor of Gaussian, Inc. and that
 it will not use this program in any manner prohibited above.
 ---------------------------------------------------------------
  

 Cite this work as:
 Gaussian 09, Revision D.01,
 M. J. Frisch, G. W. Trucks, H. B. Schlegel, G. E. Scuseria, 
 M. A. Robb, J. R. Cheeseman, G. Scalmani, V. Barone, B. Mennucci, 
 G. A. Petersson, H. Nakatsuji, M. Caricato, X. Li, H. P. Hratchian, 
 A. F. Izmaylov, J. Bloino, G. Zheng, J. L. Sonnenberg, M. Hada, 
 M. Ehara, K. Toyota, R. Fukuda, J. Hasegawa, M. Ishida, T. Nakajima, 
 Y. Honda, O. Kitao, H. Nakai, T. Vreven, J. A. Montgomery, Jr., 
 J. E. Peralta, F. Ogliaro, M. Bearpark, J. J. Heyd, E. Brothers, 
 K. N. Kudin, V. N. Staroverov, T. Keith, R. Kobayashi, J. Normand, 
 K. Raghavachari, A. Rendell, J. C. Burant, S. S. Iyengar, J. Tomasi, 
 M. Cossi, N. Rega, J. M. Millam, M. Klene, J. E. Knox, J. B. Cross, 
 V. Bakken, C. Adamo, J. Jaramillo, R. Gomperts, R. E. Stratmann, 
 O. Yazyev, A. J. Austin, R. Cammi, C. Pomelli, J. W. Ochterski, 
 R. L. Martin, K. Morokuma, V. G. Zakrzewski, G. A. Voth, 
 P. Salvador, J. J. Dannenberg, S. Dapprich, A. D. Daniels, 
 O. Farkas, J. B. Foresman, J. V. Ortiz, J. Cioslowski, 
 and D. J. Fox, Gaussian, Inc., Wallingford CT, 2013.
 
 ******************************************
 Gaussian 09:  AS64L-G09RevD.01 24-Apr-2013
                19-Jan-2019 
 ******************************************
 %Chk=BLIND01088_mA
 %Mem=1GB
 %NProcShared=48
 Will use up to   48 processors via shared memory.
 ---------------------------------------------
 #T M05/Gen test Massage SCF=(fermi,maxcyc=60)
 ---------------------------------------------
 -------
 M05 opt
 -------
 Symbolic Z-matrix:
 Charge =  0 Multiplicity = 1
 6                    -0.59626   0.01066  -0.82793 
 6                    -0.04522  -1.26882  -0.53616 
 16                    0.1712    1.54971  -0.46625 
 16                    1.50736  -1.51864   0.27728 
 6                     1.03935   1.13455   1.02308 
 6                     1.56921  -0.08283   1.31441 
 6                    -1.79118  -0.1414   -1.50198 
 7                    -0.72221  -2.32044  -0.92814 
 16                   -2.09761  -1.8324   -1.72877 
 6                     1.18406   2.23861   1.91257 
 7                     1.29744   3.17368   2.59373 
 6                     2.29241  -0.29934   2.52438 
 7                     2.91345  -0.51314   3.4833 
 6                    -2.66009   0.86509  -1.98898 
 7                    -3.38023   1.67791  -2.40346 
 
                    Distance matrix (angstroms):
                    1          2          3          4          5
     1  C    0.000000
     2  C    1.423315   0.000000
     3  S    1.757418   2.827694   0.000000
     4  S    2.825849   1.770477   3.428253   0.000000
     5  C    2.713774   3.063280   1.773167   2.795470   0.000000
     6  C    3.047557   2.727187   2.791121   1.772288   1.359281
     7  C    1.380327   2.291783   2.789903   3.992857   4.001979
     8  N    2.336642   1.310672   3.998700   2.658358   4.341342
     9  S    2.542129   2.439721   4.263822   4.137445   5.120151
    10  C    3.955208   4.450782   2.675676   4.110426   1.425163
    11  N    5.029770   5.597745   3.642685   5.237162   2.586817
    12  C    4.436049   3.971317   4.106384   2.674416   2.424897
    13  N    5.583831   5.047859   5.232040   3.642352   3.504263
    14  C    2.517432   3.674472   3.286888   5.309014   4.778168
    15  N    3.607292   4.826214   4.047461   6.425950   5.618639
                    6          7          8          9         10
     6  C    0.000000
     7  C    4.384939   0.000000
     8  N    3.909794   2.494036   0.000000
     9  S    5.076167   1.733444   1.664607   0.000000
    10  C    2.428007   5.116215   5.699860   6.371958   0.000000
    11  N    3.509330   6.107712   6.831389   7.434461   1.162408
    12  C    1.426163   5.736923   5.009263   6.301738   2.836178
    13  N    2.587713   6.864751   5.995430   7.349618   3.609722
    14  C    5.449573   1.416040   3.876636   2.767765   5.646781
    15  N    6.435818   2.578302   5.022796   3.797715   6.306769
                   11         12         13         14         15
    11  N    0.000000
    12  C    3.613393   0.000000
    13  N    4.122555   1.162293   0.000000
    14  C    6.480188   6.800997   7.931563   0.000000
    15  N    7.006418   7.769948   8.891861   1.162367   0.000000
 Symmetry turned off by external request.
 Framework group  C1[X(C8N4S3)]
 Deg. of freedom    39
 Rotational constants (GHZ):      0.7722167      0.3388923      0.2463240
   357 basis functions,   759 primitive gaussians,   387 cartesian basis functions
    62 alpha electrons       62 beta electrons
       nuclear repulsion energy      1166.1400403026 Hartrees.
 IMHF & INEx in M05                  599485                  400514
 NAtoms=   15 NActive=   15 NUniq=   15 SFac= 1.00D+00 NAtFMM=   60 NAOKFM=F Big=F
 PrsmSu:  requested number of processors reduced to:  34 ShMem   1 Linda.
 ExpMin= 3.99D-02 ExpMax= 1.11D+05 ExpMxC= 1.07D+03 IAcc=3 IRadAn=         5 AccDes= 0.00D+00
 Harris functional with IExCor= 1009 and IRadAn=       5 diagonalized for initial guess.
 HarFok:  IExCor= 1009 AccDes= 0.00D+00 IRadAn=         5 IDoV= 1 UseB2=F ITyADJ=14
 ICtDFT=  3500011 ScaDFX=  1.000000  1.000000  1.000000  1.000000
 FoFCou: FMM=F IPFlag=           0 FMFlag=      100000 FMFlg1=           0
         NFxFlg=           0 DoJE=T BraDBF=F KetDBF=T FulRan=T
         wScrn=  0.000000 ICntrl=     500 IOpCl=  0 I1Cent=   200000004 NGrid=           0
         NMat0=    1 NMatS0=      1 NMatT0=    0 NMatD0=    1 NMtDS0=    0 NMtDT0=    0
 Symmetry not used in FoFCou.
 SCF Done:  E(RM05) =  -1724.76147364     A.U. after   17 cycles
            NFock= 17  Conv=0.51D-08     -V/T= 2.0061

 **********************************************************************

            Population analysis using the SCF density.

 **********************************************************************

 Alpha  occ. eigenvalues --  -90.56430 -90.53636 -90.53182 -15.08622 -15.05416
 Alpha  occ. eigenvalues --  -15.04969 -15.04934 -10.89945 -10.89826 -10.89736
 Alpha  occ. eigenvalues --  -10.88752 -10.87414 -10.84946 -10.84332 -10.84310
 Alpha  occ. eigenvalues --   -8.57525  -8.55036  -8.54610  -6.40063  -6.39712
 Alpha  occ. eigenvalues --   -6.39401  -6.37597  -6.37283  -6.37163  -6.36853
 Alpha  occ. eigenvalues --   -6.36822  -6.36393  -1.20533  -1.12895  -1.12139
 Alpha  occ. eigenvalues --   -1.11337  -1.07643  -1.03801  -0.98824  -0.97396
 Alpha  occ. eigenvalues --   -0.88002  -0.84555  -0.82236  -0.73687  -0.71296
 Alpha  occ. eigenvalues --   -0.67838  -0.64612  -0.59530  -0.57258  -0.55386
 Alpha  occ. eigenvalues --   -0.53385  -0.52647  -0.52243  -0.51890  -0.50883
 Alpha  occ. eigenvalues --   -0.50387  -0.49356  -0.48215  -0.46805  -0.46074
 Alpha  occ. eigenvalues --   -0.45933  -0.45296  -0.43720  -0.43113  -0.39488
 Alpha  occ. eigenvalues --   -0.37628  -0.33119
 Alpha virt. eigenvalues --   -0.09329  -0.08268  -0.02098  -0.01263  -0.00503
 Alpha virt. eigenvalues --   -0.00362   0.00153   0.01255   0.02019   0.02229
 Alpha virt. eigenvalues --    0.02394   0.02956   0.03189   0.04002   0.04275
 Alpha virt. eigenvalues --    0.04488   0.05428   0.06005   0.06300   0.07067
 Alpha virt. eigenvalues --    0.07270   0.07526   0.07707   0.08289   0.08494
 Alpha virt. eigenvalues --    0.09373   0.10092   0.10390   0.10524   0.10814
 Alpha virt. eigenvalues --    0.11287   0.11394   0.11977   0.12526   0.13227
 Alpha virt. eigenvalues --    0.13490   0.13937   0.14453   0.15077   0.15190
 Alpha virt. eigenvalues --    0.15901   0.16276   0.16679   0.16813   0.17188
 Alpha virt. eigenvalues --    0.17360   0.17842   0.18609   0.19052   0.19563
 Alpha virt. eigenvalues --    0.19868   0.20237   0.20680   0.20933   0.21272
 Alpha virt. eigenvalues --    0.21880   0.22209   0.22583   0.22822   0.23612
 Alpha virt. eigenvalues --    0.23752   0.24111   0.24371   0.24703   0.25257
 Alpha virt. eigenvalues --    0.25695   0.25852   0.26223   0.26620   0.26748
 Alpha virt. eigenvalues --    0.27067   0.28337   0.29193   0.29660   0.30370
 Alpha virt. eigenvalues --    0.30711   0.32418   0.33456   0.34155   0.34716
 Alpha virt. eigenvalues --    0.34950   0.35472   0.36121   0.36933   0.37594
 Alpha virt. eigenvalues --    0.38149   0.39577   0.40729   0.41169   0.42049
 Alpha virt. eigenvalues --    0.42120   0.43487   0.44135   0.45735   0.45984
 Alpha virt. eigenvalues --    0.46965   0.48556   0.49574   0.50234   0.50601
 Alpha virt. eigenvalues --    0.51525   0.51856   0.53529   0.54167   0.54421
 Alpha virt. eigenvalues --    0.54705   0.55467   0.55736   0.55840   0.56453
 Alpha virt. eigenvalues --    0.57778   0.58140   0.58556   0.59217   0.60311
 Alpha virt. eigenvalues --    0.60554   0.61102   0.61587   0.62103   0.62708
 Alpha virt. eigenvalues --    0.63715   0.64717   0.64952   0.66006   0.66558
 Alpha virt. eigenvalues --    0.67688   0.68187   0.68806   0.70106   0.70415
 Alpha virt. eigenvalues --    0.71045   0.72862   0.73467   0.73854   0.75369
 Alpha virt. eigenvalues --    0.75566   0.76453   0.77062   0.77553   0.77840
 Alpha virt. eigenvalues --    0.78245   0.79253   0.79760   0.79880   0.81107
 Alpha virt. eigenvalues --    0.81538   0.82549   0.83279   0.83958   0.84872
 Alpha virt. eigenvalues --    0.85698   0.85939   0.87125   0.87251   0.88405
 Alpha virt. eigenvalues --    0.88458   0.89344   0.89665   0.89831   0.90729
 Alpha virt. eigenvalues --    0.91170   0.91721   0.92829   0.93720   0.94370
 Alpha virt. eigenvalues --    0.95432   0.95564   0.97325   0.98747   0.99313
 Alpha virt. eigenvalues --    0.99849   1.01205   1.02845   1.03575   1.04754
 Alpha virt. eigenvalues --    1.05757   1.06745   1.08039   1.08541   1.09638
 Alpha virt. eigenvalues --    1.10234   1.11400   1.13198   1.13610   1.14403
 Alpha virt. eigenvalues --    1.15326   1.17102   1.18344   1.20285   1.20631
 Alpha virt. eigenvalues --    1.21608   1.22700   1.23935   1.24220   1.26560
 Alpha virt. eigenvalues --    1.27344   1.29757   1.30252   1.32272   1.34127
 Alpha virt. eigenvalues --    1.37313   1.40082   1.40259   1.41566   1.42729
 Alpha virt. eigenvalues --    1.43618   1.45024   1.46463   1.47273   1.49372
 Alpha virt. eigenvalues --    1.49820   1.50474   1.51641   1.51869   1.52335
 Alpha virt. eigenvalues --    1.53716   1.54192   1.55430   1.56138   1.56447
 Alpha virt. eigenvalues --    1.56788   1.58488   1.59726   1.60388   1.60515
 Alpha virt. eigenvalues --    1.62129   1.63282   1.64918   1.66028   1.67547
 Alpha virt. eigenvalues --    1.68614   1.69174   1.70468   1.71324   1.74150
 Alpha virt. eigenvalues --    1.76826   1.77078   1.79017   1.79378   1.81043
 Alpha virt. eigenvalues --    1.82960   1.85919   1.88152   1.89701   1.90607
 Alpha virt. eigenvalues --    1.91371   1.94486   1.95006   1.97393   2.00539
 Alpha virt. eigenvalues --    2.00828   2.05448   2.07038   2.08353   2.08473
 Alpha virt. eigenvalues --    2.10895   2.13938   2.18606   2.20231   2.24595
 Alpha virt. eigenvalues --    2.27645   2.30685   2.37026   2.37402   2.38002
 Alpha virt. eigenvalues --    2.38279   2.39370   2.39930   2.40470   2.42150
 Alpha virt. eigenvalues --    2.42560   2.43756   2.45057   2.51016   2.54996
 Alpha virt. eigenvalues --    2.61156   2.64124   2.68329   2.71898   2.73264
 Alpha virt. eigenvalues --    2.76309   2.78780   2.81840   2.94680   2.99730
 Alpha virt. eigenvalues --    3.01876   3.09941   3.11450   3.15939   3.17850
 Alpha virt. eigenvalues --    3.24293   3.27127   3.35295   3.59304   3.74896
          Condensed to atoms (all electrons):
 Mulliken charges:
               1
     1  C    0.620339
     2  C   -0.109128
     3  S    0.374160
     4  S    0.296681
     5  C    1.040598
     6  C    1.131099
     7  C    0.786639
     8  N   -1.083137
     9  S    0.557405
    10  C   -1.130366
    11  N   -0.167934
    12  C   -1.100337
    13  N   -0.180406
    14  C   -0.852565
    15  N   -0.183050
 Sum of Mulliken charges =  -0.00000
 Mulliken charges with hydrogens summed into heavy atoms:
               1
     1  C    0.620339
     2  C   -0.109128
     3  S    0.374160
     4  S    0.296681
     5  C    1.040598
     6  C    1.131099
     7  C    0.786639
     8  N   -1.083137
     9  S    0.557405
    10  C   -1.130366
    11  N   -0.167934
    12  C   -1.100337
    13  N   -0.180406
    14  C   -0.852565
    15  N   -0.183050
 Electronic spatial extent (au):  <R**2>=           4013.7184
 Charge=              0.0000 electrons
 Dipole moment (field-independent basis, Debye):
    X=             -0.8459    Y=             -3.0083    Z=             -3.4910  Tot=              4.6853

 Test job not archived.
 1\1\GINC-CHIMERA-NODE60\SP\RM05\Gen\C8N4S3\CONNORNM\19-Jan-2019\0\\#T 
 M05/Gen test Massage SCF=(fermi,maxcyc=60)\\M05 opt\\0,1\C,0,-0.596259
 48,0.0106558,-0.82793115\C,0,-0.04522126,-1.26881822,-0.53616111\S,0,0
 .17120497,1.54971438,-0.46624948\S,0,1.50735674,-1.51863797,0.27727603
 \C,0,1.03934741,1.13454909,1.02307539\C,0,1.56920955,-0.08283196,1.314
 40601\C,0,-1.79118489,-0.14139631,-1.50197614\N,0,-0.72220575,-2.32043
 667,-0.9281441\S,0,-2.09760876,-1.83240042,-1.72877139\C,0,1.18406347,
 2.23860742,1.91257082\N,0,1.29743811,3.17367801,2.59373322\C,0,2.29241
 228,-0.29933572,2.52438365\N,0,2.91345317,-0.51313937,3.48330092\C,0,-
 2.66008652,0.86508637,-1.98897819\N,0,-3.38023175,1.67791335,-2.403464
 7\\Version=AS64L-G09RevD.01\HF=-1724.7614736\RMSD=5.149e-09\Dipole=-0.
 3327999,-1.1835569,-1.3734545\Quadrupole=2.3333436,0.5500989,-2.883442
 5,4.7451842,-10.4479927,-0.3138431\PG=C01 [X(C8N4S3)]\\@


 HE WHO LAUGHS LAST PROBABLY DIDN'T GET THE JOKE.
 Job cpu time:       0 days  1 hours 48 minutes 53.3 seconds.
 File lengths (MBytes):  RWF=     58 Int=      0 D2E=      0 Chk=      6 Scr=      1
 Normal termination of Gaussian 09 at Sat Jan 19 11:01:41 2019.
