 Entering Gaussian System, Link 0=/data/szalewicgrp/connornm/opt/Gaussian/g09-M05-par/g09/g09
 Initial command:
 /data/szalewicgrp/connornm/opt/Gaussian/g09-M05-par/g09/l1.exe "/scratch/local/Gau-7284.inp" -scrdir="/scratch/local/"
 Entering Link 1 = /data/szalewicgrp/connornm/opt/Gaussian/g09-M05-par/g09/l1.exe PID=      7285.
  
 Copyright (c) 1988,1990,1992,1993,1995,1998,2003,2009,2013,
            Gaussian, Inc.  All Rights Reserved.
  
 This is part of the Gaussian(R) 09 program.  It is based on
 the Gaussian(R) 03 system (copyright 2003, Gaussian, Inc.),
 the Gaussian(R) 98 system (copyright 1998, Gaussian, Inc.),
 the Gaussian(R) 94 system (copyright 1995, Gaussian, Inc.),
 the Gaussian 92(TM) system (copyright 1992, Gaussian, Inc.),
 the Gaussian 90(TM) system (copyright 1990, Gaussian, Inc.),
 the Gaussian 88(TM) system (copyright 1988, Gaussian, Inc.),
 the Gaussian 86(TM) system (copyright 1986, Carnegie Mellon
 University), and the Gaussian 82(TM) system (copyright 1983,
 Carnegie Mellon University). Gaussian is a federally registered
 trademark of Gaussian, Inc.
  
 This software contains proprietary and confidential information,
 including trade secrets, belonging to Gaussian, Inc.
  
 This software is provided under written license and may be
 used, copied, transmitted, or stored only in accord with that
 written license.
  
 The following legend is applicable only to US Government
 contracts under FAR:
  
                    RESTRICTED RIGHTS LEGEND
  
 Use, reproduction and disclosure by the US Government is
 subject to restrictions as set forth in subparagraphs (a)
 and (c) of the Commercial Computer Software - Restricted
 Rights clause in FAR 52.227-19.
  
 Gaussian, Inc.
 340 Quinnipiac St., Bldg. 40, Wallingford CT 06492
  
  
 ---------------------------------------------------------------
 Warning -- This program may not be used in any manner that
 competes with the business of Gaussian, Inc. or will provide
 assistance to any competitor of Gaussian, Inc.  The licensee
 of this program is prohibited from giving any competitor of
 Gaussian, Inc. access to this program.  By using this program,
 the user acknowledges that Gaussian, Inc. is engaged in the
 business of creating and licensing software in the field of
 computational chemistry and represents and warrants to the
 licensee that it is not a competitor of Gaussian, Inc. and that
 it will not use this program in any manner prohibited above.
 ---------------------------------------------------------------
  

 Cite this work as:
 Gaussian 09, Revision D.01,
 M. J. Frisch, G. W. Trucks, H. B. Schlegel, G. E. Scuseria, 
 M. A. Robb, J. R. Cheeseman, G. Scalmani, V. Barone, B. Mennucci, 
 G. A. Petersson, H. Nakatsuji, M. Caricato, X. Li, H. P. Hratchian, 
 A. F. Izmaylov, J. Bloino, G. Zheng, J. L. Sonnenberg, M. Hada, 
 M. Ehara, K. Toyota, R. Fukuda, J. Hasegawa, M. Ishida, T. Nakajima, 
 Y. Honda, O. Kitao, H. Nakai, T. Vreven, J. A. Montgomery, Jr., 
 J. E. Peralta, F. Ogliaro, M. Bearpark, J. J. Heyd, E. Brothers, 
 K. N. Kudin, V. N. Staroverov, T. Keith, R. Kobayashi, J. Normand, 
 K. Raghavachari, A. Rendell, J. C. Burant, S. S. Iyengar, J. Tomasi, 
 M. Cossi, N. Rega, J. M. Millam, M. Klene, J. E. Knox, J. B. Cross, 
 V. Bakken, C. Adamo, J. Jaramillo, R. Gomperts, R. E. Stratmann, 
 O. Yazyev, A. J. Austin, R. Cammi, C. Pomelli, J. W. Ochterski, 
 R. L. Martin, K. Morokuma, V. G. Zakrzewski, G. A. Voth, 
 P. Salvador, J. J. Dannenberg, S. Dapprich, A. D. Daniels, 
 O. Farkas, J. B. Foresman, J. V. Ortiz, J. Cioslowski, 
 and D. J. Fox, Gaussian, Inc., Wallingford CT, 2013.
 
 ******************************************
 Gaussian 09:  AS64L-G09RevD.01 24-Apr-2013
                17-Jan-2019 
 ******************************************
 %Chk=BLIND_dimer00001
 %Mem=16GB
 %NProcShared=16
 Will use up to   16 processors via shared memory.
 -----------------------------------------------------
 #T M05/aug-cc-pvdz test Massage SCF=(fermi,maxcyc=60)
 -----------------------------------------------------
 -------
 M05 opt
 -------
 Symbolic Z-matrix:
 Charge =  0 Multiplicity = 1
 6                    -0.68618  -0.7385   -0.15777 
 6                    -1.26592   0.5358    0.09894 
 16                    0.86222  -1.00615  -0.94475 
 16                   -0.49602   2.07685  -0.30974 
 6                     1.75566   0.4222   -0.39184 
 6                     1.21435   1.6438   -0.14217 
 6                    -1.55658  -1.73307   0.24038 
 7                    -2.45866   0.55718   0.64186 
 16                   -3.00031  -1.00149   0.86108 
 6                     3.1565    0.19195  -0.26644 
 7                     4.29427  -0.03725  -0.20218 
 6                     2.03189   2.74297   0.25457 
 7                     2.66273   3.67299   0.55125 
 6                    -1.3855   -3.13627   0.15704 
 7                    -1.26598  -4.2904    0.0879 
 6                    -0.666    -0.67042   5.97506 
 6                     0.58833  -1.24578   6.32356 
 16                   -1.40473   0.7084    6.77609 
 16                    1.63441  -0.63743   7.61593 
 6                     0.04093   1.62742   7.23392 
 6                     1.24433   1.09072   7.56773 
 6                    -1.24681  -1.40345   4.95985 
 7                     0.96723  -2.3119    5.66198 
 16                   -0.20764  -2.73206   4.56014 
 6                    -0.17903   3.03505   7.26966 
 7                    -0.41321   4.17299   7.30773 
 6                     2.33342   1.91988   7.96813 
 7                     3.23841   2.55426   8.32795 
 6                    -2.49368  -1.18979   4.3236 
 7                    -3.5182   -1.03494   3.79683 
 
                    Distance matrix (angstroms):
                    1          2          3          4          5
     1  C    0.000000
     2  C    1.423315   0.000000
     3  S    1.757418   2.827694   0.000000
     4  S    2.825849   1.770477   3.428253   0.000000
     5  C    2.713774   3.063280   1.773167   2.795470   0.000000
     6  C    3.047557   2.727187   2.791121   1.772288   1.359281
     7  C    1.380327   2.291783   2.789903   3.992857   4.001979
     8  N    2.336642   1.310672   3.998700   2.658358   4.341342
     9  S    2.542129   2.439721   4.263822   4.137445   5.120151
    10  C    3.955208   4.450782   2.675676   4.110426   1.425163
    11  N    5.029770   5.597745   3.642685   5.237162   2.586817
    12  C    4.436049   3.971317   4.106384   2.674416   2.424897
    13  N    5.583831   5.047859   5.232040   3.642352   3.504263
    14  C    2.517432   3.674472   3.286888   5.309014   4.778168
    15  N    3.607292   4.826214   4.047461   6.425950   5.618639
    16  C    6.133232   6.028566   7.094498   6.861124   6.898960
    17  C    6.624898   6.734846   7.277418   7.497755   7.017227
    18  S    7.119560   6.680820   8.227398   7.273742   7.838951
    19  S    8.113301   8.142081   8.603343   8.644204   8.078487
    20  C    7.795084   7.335360   8.631394   7.576093   7.908552
    21  C    8.170447   7.898869   8.775264   8.127473   8.003950
    22  C    5.191001   5.233502   6.282532   6.359620   6.402223
    23  N    6.251304   6.636547   6.735351   7.554048   6.689224
    24  S    5.144111   5.630374   5.867467   6.850139   6.190799
    25  C    8.346467   7.671167   9.213688   7.646301   8.322778
    26  N    8.940409   8.119298   9.826174   7.901048   8.834922
    27  C    9.067255   8.763281   9.495554   8.749487   8.512696
    28  N    9.912221   9.595827  10.213027   9.422510   9.098303
    29  C    4.853185   4.725764   6.249110   6.010776   6.549110
    30  N    4.873093   4.605905   6.455345   5.973327   6.890701
                    6          7          8          9         10
     6  C    0.000000
     7  C    4.384939   0.000000
     8  N    3.909794   2.494036   0.000000
     9  S    5.076167   1.733444   1.664607   0.000000
    10  C    2.428007   5.116215   5.699860   6.371958   0.000000
    11  N    3.509330   6.107712   6.831389   7.434461   1.162408
    12  C    1.426163   5.736923   5.009263   6.301738   2.836178
    13  N    2.587713   6.864750   5.995430   7.349618   3.609722
    14  C    5.449573   1.416040   3.876636   2.767765   5.646781
    15  N    6.435818   2.578302   5.022796   3.797715   6.306769
    16  C    6.805274   5.899899   5.758792   5.631287   7.369628
    17  C    7.109656   6.468625   6.694520   6.540391   7.217386
    18  S    7.456325   6.978485   6.225949   6.360580   8.406464
    19  S    8.097439   8.110579   8.174230   8.200072   8.070711
    20  C    7.468864   7.921777   7.130830   7.534820   8.247595
    21  C    7.729769   8.337202   7.871758   8.208139   8.114088
    22  C    6.432236   4.741097   4.894671   4.476195   7.017728
    23  N    7.028282   6.008193   6.720867   6.364529   6.797669
    24  S    6.578893   4.634422   5.589199   4.947414   6.569860
    25  C    7.668916   8.604845   7.433997   8.082279   8.717900
    26  N    8.034101   9.280965   7.854418   8.661858   9.271438
    27  C    8.191791   9.391178   8.859759   9.353787   8.454072
    28  N    8.756067  10.333538   9.773491  10.359505   8.913521
    29  C    6.459247   4.224452   4.075342   3.504457   7.409603
    30  N    6.714787   4.121122   3.689353   2.981271   7.909925
                   11         12         13         14         15
    11  N    0.000000
    12  C    3.613393   0.000000
    13  N    4.122555   1.162293   0.000000
    14  C    6.480188   6.800997   7.931563   0.000000
    15  N    7.006418   7.769948   8.891861   1.162367   0.000000
    16  C    7.947546   7.187059   7.704763   6.359826   6.937066
    17  C    7.601311   7.404503   7.862382   6.745068   7.182736
    18  S    9.040509   7.647221   8.005099   7.654647   8.350999
    19  S    8.279976   8.110163   8.339478   8.426096   8.855943
    20  C    8.726842   7.343010   7.464340   8.649262   9.369865
    21  C    8.422948   7.538734   7.609927   8.927589   9.550190
    22  C    7.695238   7.076889   7.777568   5.107731   5.663111
    23  N    7.115594   7.478322   8.050665   6.043124   6.322354
    24  S    7.085824   7.316374   8.082998   4.575809   4.852780
    25  C    9.234604   7.361044   7.322541   9.493688  10.316078
    26  N    9.812507   7.600694   7.440527  10.271468  11.157165
    27  C    8.627242   7.763209   7.628364  10.020388  10.659333
    28  N    8.977417   8.165222   7.877822  10.978462  11.620567
    29  C    8.239383   7.245995   8.029068   4.730442   5.390943
    30  N    8.833014   7.591023   8.420348   4.712966   5.424642
                   16         17         18         19         20
    16  C    0.000000
    17  C    1.423315   0.000000
    18  S    1.757418   2.827694   0.000000
    19  S    2.825849   1.770477   3.428253   0.000000
    20  C    2.713774   3.063280   1.773167   2.795470   0.000000
    21  C    3.047557   2.727187   2.791121   1.772288   1.359281
    22  C    1.380327   2.291783   2.789903   3.992857   4.001979
    23  N    2.336642   1.310672   3.998700   2.658358   4.341342
    24  S    2.542129   2.439721   4.263822   4.137445   5.120151
    25  C    3.955208   4.450782   2.675676   4.110426   1.425163
    26  N    5.029770   5.597745   3.642685   5.237162   2.586817
    27  C    4.436049   3.971317   4.106384   2.674416   2.424897
    28  N    5.583831   5.047859   5.232040   3.642352   3.504263
    29  C    2.517432   3.674472   3.286888   5.309014   4.778168
    30  N    3.607292   4.826214   4.047461   6.425950   5.618639
                   21         22         23         24         25
    21  C    0.000000
    22  C    4.384939   0.000000
    23  N    3.909794   2.494036   0.000000
    24  S    5.076167   1.733444   1.664607   0.000000
    25  C    2.428007   5.116215   5.699860   6.371958   0.000000
    26  N    3.509330   6.107712   6.831389   7.434461   1.162408
    27  C    1.426163   5.736923   5.009263   6.301738   2.836178
    28  N    2.587713   6.864751   5.995430   7.349618   3.609722
    29  C    5.449573   1.416040   3.876636   2.767765   5.646781
    30  N    6.435818   2.578302   5.022796   3.797715   6.306769
                   26         27         28         29         30
    26  N    0.000000
    27  C    3.613393   0.000000
    28  N    4.122555   1.162293   0.000000
    29  C    6.480188   6.800997   7.931563   0.000000
    30  N    7.006418   7.769948   8.891861   1.162367   0.000000
 Symmetry turned off by external request.
 Framework group  C1[X(C16N8S6)]
 Deg. of freedom    84
 Rotational constants (GHZ):      0.1418401      0.0735542      0.0632619
   714 basis functions,  1518 primitive gaussians,   774 cartesian basis functions
   124 alpha electrons      124 beta electrons
       nuclear repulsion energy      3483.4309589691 Hartrees.
 IMHF & INEx in M05                  599485                  400514
 NAtoms=   30 NActive=   30 NUniq=   30 SFac= 1.00D+00 NAtFMM=   60 NAOKFM=F Big=F
 ExpMin= 3.99D-02 ExpMax= 1.11D+05 ExpMxC= 1.07D+03 IAcc=3 IRadAn=         5 AccDes= 0.00D+00
 Harris functional with IExCor= 1009 and IRadAn=       5 diagonalized for initial guess.
 HarFok:  IExCor= 1009 AccDes= 0.00D+00 IRadAn=         5 IDoV= 1 UseB2=F ITyADJ=14
 ICtDFT=  3500011 ScaDFX=  1.000000  1.000000  1.000000  1.000000
 FoFCou: FMM=F IPFlag=           0 FMFlag=      100000 FMFlg1=           0
         NFxFlg=           0 DoJE=T BraDBF=F KetDBF=T FulRan=T
         wScrn=  0.000000 ICntrl=     500 IOpCl=  0 I1Cent=   200000004 NGrid=           0
         NMat0=    1 NMatS0=      1 NMatT0=    0 NMatD0=    1 NMtDS0=    0 NMtDT0=    0
 Symmetry not used in FoFCou.
