 Entering Gaussian System, Link 0=/data/szalewicgrp/connornm/opt/Gaussian/g09-M05-par/g09/g09
 AtFile(1): blind-aug.gbs
 Initial command:
 /data/szalewicgrp/connornm/opt/Gaussian/g09-M05-par/g09/l1.exe "/scratch/local/Gau-32426.inp" -scrdir="/scratch/local/"
 Entering Link 1 = /data/szalewicgrp/connornm/opt/Gaussian/g09-M05-par/g09/l1.exe PID=     32427.
  
 Copyright (c) 1988,1990,1992,1993,1995,1998,2003,2009,2013,
            Gaussian, Inc.  All Rights Reserved.
  
 This is part of the Gaussian(R) 09 program.  It is based on
 the Gaussian(R) 03 system (copyright 2003, Gaussian, Inc.),
 the Gaussian(R) 98 system (copyright 1998, Gaussian, Inc.),
 the Gaussian(R) 94 system (copyright 1995, Gaussian, Inc.),
 the Gaussian 92(TM) system (copyright 1992, Gaussian, Inc.),
 the Gaussian 90(TM) system (copyright 1990, Gaussian, Inc.),
 the Gaussian 88(TM) system (copyright 1988, Gaussian, Inc.),
 the Gaussian 86(TM) system (copyright 1986, Carnegie Mellon
 University), and the Gaussian 82(TM) system (copyright 1983,
 Carnegie Mellon University). Gaussian is a federally registered
 trademark of Gaussian, Inc.
  
 This software contains proprietary and confidential information,
 including trade secrets, belonging to Gaussian, Inc.
  
 This software is provided under written license and may be
 used, copied, transmitted, or stored only in accord with that
 written license.
  
 The following legend is applicable only to US Government
 contracts under FAR:
  
                    RESTRICTED RIGHTS LEGEND
  
 Use, reproduction and disclosure by the US Government is
 subject to restrictions as set forth in subparagraphs (a)
 and (c) of the Commercial Computer Software - Restricted
 Rights clause in FAR 52.227-19.
  
 Gaussian, Inc.
 340 Quinnipiac St., Bldg. 40, Wallingford CT 06492
  
  
 ---------------------------------------------------------------
 Warning -- This program may not be used in any manner that
 competes with the business of Gaussian, Inc. or will provide
 assistance to any competitor of Gaussian, Inc.  The licensee
 of this program is prohibited from giving any competitor of
 Gaussian, Inc. access to this program.  By using this program,
 the user acknowledges that Gaussian, Inc. is engaged in the
 business of creating and licensing software in the field of
 computational chemistry and represents and warrants to the
 licensee that it is not a competitor of Gaussian, Inc. and that
 it will not use this program in any manner prohibited above.
 ---------------------------------------------------------------
  

 Cite this work as:
 Gaussian 09, Revision D.01,
 M. J. Frisch, G. W. Trucks, H. B. Schlegel, G. E. Scuseria, 
 M. A. Robb, J. R. Cheeseman, G. Scalmani, V. Barone, B. Mennucci, 
 G. A. Petersson, H. Nakatsuji, M. Caricato, X. Li, H. P. Hratchian, 
 A. F. Izmaylov, J. Bloino, G. Zheng, J. L. Sonnenberg, M. Hada, 
 M. Ehara, K. Toyota, R. Fukuda, J. Hasegawa, M. Ishida, T. Nakajima, 
 Y. Honda, O. Kitao, H. Nakai, T. Vreven, J. A. Montgomery, Jr., 
 J. E. Peralta, F. Ogliaro, M. Bearpark, J. J. Heyd, E. Brothers, 
 K. N. Kudin, V. N. Staroverov, T. Keith, R. Kobayashi, J. Normand, 
 K. Raghavachari, A. Rendell, J. C. Burant, S. S. Iyengar, J. Tomasi, 
 M. Cossi, N. Rega, J. M. Millam, M. Klene, J. E. Knox, J. B. Cross, 
 V. Bakken, C. Adamo, J. Jaramillo, R. Gomperts, R. E. Stratmann, 
 O. Yazyev, A. J. Austin, R. Cammi, C. Pomelli, J. W. Ochterski, 
 R. L. Martin, K. Morokuma, V. G. Zakrzewski, G. A. Voth, 
 P. Salvador, J. J. Dannenberg, S. Dapprich, A. D. Daniels, 
 O. Farkas, J. B. Foresman, J. V. Ortiz, J. Cioslowski, 
 and D. J. Fox, Gaussian, Inc., Wallingford CT, 2013.
 
 ******************************************
 Gaussian 09:  AS64L-G09RevD.01 24-Apr-2013
                20-Jan-2019 
 ******************************************
 %Chk=BLIND00912
 %Mem=1GB
 %NProcShared=48
 Will use up to   48 processors via shared memory.
 ---------------------------------------------
 #T M05/Gen test Massage SCF=(fermi,maxcyc=60)
 ---------------------------------------------
 -------
 M05 opt
 -------
 Symbolic Z-matrix:
 Charge =  0 Multiplicity = 1
 6                     0.5118    0.57299  -0.67145 
 6                     0.77507  -0.82068  -0.79067 
 16                   -1.00505   1.27364  -0.12668 
 16                   -0.38722  -2.08943  -0.37363 
 6                    -1.53276   0.0387    1.03116 
 6                    -1.2873   -1.29438   0.92973 
 6                     1.60337   1.29123  -1.11634 
 7                     1.94182  -1.17487  -1.2714 
 16                    2.82273   0.18398  -1.65669 
 6                    -2.30783   0.57082   2.10223 
 7                    -2.95433   1.04786   2.94227 
 6                    -1.79931  -2.21164   1.89431 
 7                    -2.22052  -2.99757   2.63984 
 6                     1.76298   2.69664  -1.18342 
 7                     1.90775   3.84778  -1.25422 
 6                    -0.56394   0.44804   5.61715 
 6                    -0.43172  -0.95916   5.78495 
 16                    0.63816   1.49695   4.8801 
 16                    0.96921  -1.89599   5.24244 
 6                     1.33663   0.39333   3.68082 
 6                     1.46773  -0.95158   3.82802 
 6                    -1.74767   0.87397   6.18519 
 7                    -1.39828  -1.58514   6.41086 
 16                   -2.55756  -0.48908   6.8859 
 6                     1.81241   1.06184   2.51556 
 7                     2.20665   1.65382   1.59614 
 6                     2.08925  -1.74449   2.81858 
 7                     2.61446  -2.42485   2.03616 
 6                    -2.26605   2.18989   6.25452 
 7                    -2.70221   3.26476   6.32878 
 
                    Distance matrix (angstroms):
                    1          2          3          4          5
     1  C    0.000000
     2  C    1.423315   0.000000
     3  S    1.757418   2.827694   0.000000
     4  S    2.825849   1.770477   3.428253   0.000000
     5  C    2.713774   3.063280   1.773167   2.795470   0.000000
     6  C    3.047557   2.727187   2.791121   1.772288   1.359281
     7  C    1.380327   2.291783   2.789903   3.992857   4.001979
     8  N    2.336642   1.310672   3.998700   2.658358   4.341342
     9  S    2.542129   2.439721   4.263822   4.137445   5.120151
    10  C    3.955208   4.450782   2.675676   4.110426   1.425163
    11  N    5.029770   5.597745   3.642685   5.237162   2.586817
    12  C    4.436049   3.971317   4.106384   2.674416   2.424897
    13  N    5.583831   5.047859   5.232040   3.642352   3.504263
    14  C    2.517432   3.674472   3.286888   5.309014   4.778168
    15  N    3.607292   4.826214   4.047461   6.425950   5.618639
    16  C    6.381173   6.668043   5.819603   6.508415   4.705051
    17  C    6.702452   6.686881   6.345192   6.261604   4.980621
    18  S    5.629337   6.127628   5.274266   6.443235   4.653362
    19  S    6.424888   6.131266   6.540004   5.780794   5.266667
    20  C    4.433382   4.667268   4.555814   5.057109   3.921719
    21  C    4.845966   4.672180   5.167775   4.731750   4.219723
    22  C    7.225604   7.609121   6.367960   7.324666   5.225697
    23  N    7.646248   7.561083   7.146094   6.877930   5.621047
    24  S    8.225726   8.375331   7.395523   7.744180   5.967144
    25  C    3.476722   3.943488   3.868378   4.807941   3.800054
    26  N    3.030289   3.724163   3.664370   4.961859   4.112291
    27  C    4.476537   3.950599   5.230517   4.054892   4.415156
    28  N    4.554051   3.734664   5.608698   3.863895   4.927325
    29  C    7.635437   8.242976   6.568815   8.110178   5.696388
    30  N    8.159580   8.914532   6.965477   8.885317   6.311881
                    6          7          8          9         10
     6  C    0.000000
     7  C    4.384939   0.000000
     8  N    3.909794   2.494036   0.000000
     9  S    5.076167   1.733444   1.664607   0.000000
    10  C    2.428007   5.116215   5.699860   6.371958   0.000000
    11  N    3.509330   6.107712   6.831389   7.434461   1.162408
    12  C    1.426163   5.736923   5.009263   6.301738   2.836178
    13  N    2.587713   6.864751   5.995430   7.349618   3.609722
    14  C    5.449573   1.416040   3.876636   2.767765   5.646781
    15  N    6.435818   2.578302   5.022796   3.797715   6.306769
    16  C    5.052838   7.123767   7.507652   8.027957   3.925671
    17  C    4.941415   7.538806   7.447979   8.202214   4.407160
    18  S    5.206185   6.077106   6.832213   7.016119   4.153694
    19  S    4.904409   7.141045   6.625414   7.440420   5.165759
    20  C    4.159551   4.887744   5.229720   5.544487   3.975623
    21  C    4.013452   5.430955   5.126281   5.762607   4.421645
    22  C    5.703818   8.044615   8.568014   9.102735   4.132339
    23  N    5.489961   8.598959   8.387003   9.275355   4.903033
    24  S    6.143130   9.193400   9.341110  10.118125   4.906043
    25  C    4.204140   3.645131   4.400076   4.381675   4.169932
    26  N    4.619912   2.802309   4.036629   3.622278   4.670065
    27  C    3.895053   4.993520   4.132094   4.927992   5.020770
    28  N    4.210208   4.976926   3.599289   4.526210   5.762582
    29  C    6.438281   8.373140   9.255661   9.618036   4.456975
    30  N    7.206763   8.823978   9.951889  10.187441   5.027577
                   11         12         13         14         15
    11  N    0.000000
    12  C    3.613393   0.000000
    13  N    4.122555   1.162293   0.000000
    14  C    6.480188   6.800997   7.931563   0.000000
    15  N    7.006418   7.769948   8.891861   1.162367   0.000000
    16  C    3.637128   4.739148   4.845704   7.531171   8.055013
    17  C    4.297961   4.309999   4.152912   8.169440   8.839100
    18  S    4.106441   5.348817   5.778545   6.282575   6.690901
    19  S    5.417670   4.355948   4.261616   7.938134   8.722290
    20  C    4.402978   4.451023   5.023465   5.398870   6.050950
    21  C    4.933246   4.000066   4.381900   6.205743   7.004049
    22  C    3.464499   5.285383   5.270858   8.363203   8.806271
    23  N    4.624396   4.577395   4.109945   9.273635   9.959915
    24  S    4.251095   5.334614   4.943193   9.691739  10.247384
    25  C    4.785820   4.913868   5.723529   4.044435   4.688477
    26  N    5.367952   5.574792   6.505730   3.001709   3.609346
    27  C    5.766294   4.024102   4.491802   5.987160   6.920560
    28  N    6.625112   4.421189   4.906061   6.109043   7.118427
    29  C    3.570565   6.213108   6.322798   8.474241   8.749301
    30  N    4.055442   7.104270   7.284030   8.757500   8.893451
                   16         17         18         19         20
    16  C    0.000000
    17  C    1.423315   0.000000
    18  S    1.757418   2.827694   0.000000
    19  S    2.825849   1.770477   3.428253   0.000000
    20  C    2.713774   3.063280   1.773167   2.795470   0.000000
    21  C    3.047557   2.727187   2.791121   1.772288   1.359281
    22  C    1.380327   2.291783   2.789903   3.992857   4.001979
    23  N    2.336642   1.310672   3.998700   2.658358   4.341342
    24  S    2.542129   2.439721   4.263822   4.137445   5.120151
    25  C    3.955208   4.450782   2.675676   4.110426   1.425163
    26  N    5.029770   5.597745   3.642685   5.237162   2.586817
    27  C    4.436049   3.971317   4.106384   2.674416   2.424897
    28  N    5.583831   5.047859   5.232040   3.642352   3.504263
    29  C    2.517432   3.674472   3.286888   5.309014   4.778168
    30  N    3.607292   4.826214   4.047461   6.425950   5.618639
                   21         22         23         24         25
    21  C    0.000000
    22  C    4.384939   0.000000
    23  N    3.909794   2.494036   0.000000
    24  S    5.076167   1.733444   1.664607   0.000000
    25  C    2.428007   5.116215   5.699860   6.371958   0.000000
    26  N    3.509330   6.107712   6.831389   7.434461   1.162408
    27  C    1.426163   5.736923   5.009263   6.301738   2.836178
    28  N    2.587713   6.864751   5.995430   7.349618   3.609722
    29  C    5.449573   1.416040   3.876636   2.767765   5.646781
    30  N    6.435818   2.578302   5.022796   3.797715   6.306769
                   26         27         28         29         30
    26  N    0.000000
    27  C    3.613393   0.000000
    28  N    4.122555   1.162293   0.000000
    29  C    6.480188   6.800997   7.931563   0.000000
    30  N    7.006418   7.769948   8.891861   1.162367   0.000000
 Symmetry turned off by external request.
 Framework group  C1[X(C16N8S6)]
 Deg. of freedom    84
 Rotational constants (GHZ):      0.2033461      0.0876823      0.0831045
   714 basis functions,  1518 primitive gaussians,   774 cartesian basis functions
   124 alpha electrons      124 beta electrons
       nuclear repulsion energy      3766.4924851420 Hartrees.
 IMHF & INEx in M05                  599485                  400514
 NAtoms=   30 NActive=   30 NUniq=   30 SFac= 1.00D+00 NAtFMM=   60 NAOKFM=F Big=F
 PrsmSu:  requested number of processors reduced to:  25 ShMem   1 Linda.
 ExpMin= 3.99D-02 ExpMax= 1.11D+05 ExpMxC= 1.07D+03 IAcc=3 IRadAn=         5 AccDes= 0.00D+00
 Harris functional with IExCor= 1009 and IRadAn=       5 diagonalized for initial guess.
 HarFok:  IExCor= 1009 AccDes= 0.00D+00 IRadAn=         5 IDoV= 1 UseB2=F ITyADJ=14
 ICtDFT=  3500011 ScaDFX=  1.000000  1.000000  1.000000  1.000000
 FoFCou: FMM=F IPFlag=           0 FMFlag=      100000 FMFlg1=           0
         NFxFlg=           0 DoJE=T BraDBF=F KetDBF=T FulRan=T
         wScrn=  0.000000 ICntrl=     500 IOpCl=  0 I1Cent=   200000004 NGrid=           0
         NMat0=    1 NMatS0=      1 NMatT0=    0 NMatD0=    1 NMtDS0=    0 NMtDT0=    0
 Symmetry not used in FoFCou.
