 Entering Gaussian System, Link 0=/data/szalewicgrp/connornm/opt/Gaussian/g09-M05-par/g09/g09
 AtFile(1): blind-aug.gbs
 Initial command:
 /data/szalewicgrp/connornm/opt/Gaussian/g09-M05-par/g09/l1.exe "/scratch/local/Gau-30452.inp" -scrdir="/scratch/local/"
 Entering Link 1 = /data/szalewicgrp/connornm/opt/Gaussian/g09-M05-par/g09/l1.exe PID=     30453.
  
 Copyright (c) 1988,1990,1992,1993,1995,1998,2003,2009,2013,
            Gaussian, Inc.  All Rights Reserved.
  
 This is part of the Gaussian(R) 09 program.  It is based on
 the Gaussian(R) 03 system (copyright 2003, Gaussian, Inc.),
 the Gaussian(R) 98 system (copyright 1998, Gaussian, Inc.),
 the Gaussian(R) 94 system (copyright 1995, Gaussian, Inc.),
 the Gaussian 92(TM) system (copyright 1992, Gaussian, Inc.),
 the Gaussian 90(TM) system (copyright 1990, Gaussian, Inc.),
 the Gaussian 88(TM) system (copyright 1988, Gaussian, Inc.),
 the Gaussian 86(TM) system (copyright 1986, Carnegie Mellon
 University), and the Gaussian 82(TM) system (copyright 1983,
 Carnegie Mellon University). Gaussian is a federally registered
 trademark of Gaussian, Inc.
  
 This software contains proprietary and confidential information,
 including trade secrets, belonging to Gaussian, Inc.
  
 This software is provided under written license and may be
 used, copied, transmitted, or stored only in accord with that
 written license.
  
 The following legend is applicable only to US Government
 contracts under FAR:
  
                    RESTRICTED RIGHTS LEGEND
  
 Use, reproduction and disclosure by the US Government is
 subject to restrictions as set forth in subparagraphs (a)
 and (c) of the Commercial Computer Software - Restricted
 Rights clause in FAR 52.227-19.
  
 Gaussian, Inc.
 340 Quinnipiac St., Bldg. 40, Wallingford CT 06492
  
  
 ---------------------------------------------------------------
 Warning -- This program may not be used in any manner that
 competes with the business of Gaussian, Inc. or will provide
 assistance to any competitor of Gaussian, Inc.  The licensee
 of this program is prohibited from giving any competitor of
 Gaussian, Inc. access to this program.  By using this program,
 the user acknowledges that Gaussian, Inc. is engaged in the
 business of creating and licensing software in the field of
 computational chemistry and represents and warrants to the
 licensee that it is not a competitor of Gaussian, Inc. and that
 it will not use this program in any manner prohibited above.
 ---------------------------------------------------------------
  

 Cite this work as:
 Gaussian 09, Revision D.01,
 M. J. Frisch, G. W. Trucks, H. B. Schlegel, G. E. Scuseria, 
 M. A. Robb, J. R. Cheeseman, G. Scalmani, V. Barone, B. Mennucci, 
 G. A. Petersson, H. Nakatsuji, M. Caricato, X. Li, H. P. Hratchian, 
 A. F. Izmaylov, J. Bloino, G. Zheng, J. L. Sonnenberg, M. Hada, 
 M. Ehara, K. Toyota, R. Fukuda, J. Hasegawa, M. Ishida, T. Nakajima, 
 Y. Honda, O. Kitao, H. Nakai, T. Vreven, J. A. Montgomery, Jr., 
 J. E. Peralta, F. Ogliaro, M. Bearpark, J. J. Heyd, E. Brothers, 
 K. N. Kudin, V. N. Staroverov, T. Keith, R. Kobayashi, J. Normand, 
 K. Raghavachari, A. Rendell, J. C. Burant, S. S. Iyengar, J. Tomasi, 
 M. Cossi, N. Rega, J. M. Millam, M. Klene, J. E. Knox, J. B. Cross, 
 V. Bakken, C. Adamo, J. Jaramillo, R. Gomperts, R. E. Stratmann, 
 O. Yazyev, A. J. Austin, R. Cammi, C. Pomelli, J. W. Ochterski, 
 R. L. Martin, K. Morokuma, V. G. Zakrzewski, G. A. Voth, 
 P. Salvador, J. J. Dannenberg, S. Dapprich, A. D. Daniels, 
 O. Farkas, J. B. Foresman, J. V. Ortiz, J. Cioslowski, 
 and D. J. Fox, Gaussian, Inc., Wallingford CT, 2013.
 
 ******************************************
 Gaussian 09:  AS64L-G09RevD.01 24-Apr-2013
                19-Jan-2019 
 ******************************************
 %Chk=BLIND02370_mB
 %Mem=1GB
 %NProcShared=48
 Will use up to   48 processors via shared memory.
 ---------------------------------------------
 #T M05/Gen test Massage SCF=(fermi,maxcyc=60)
 ---------------------------------------------
 -------
 M05 opt
 -------
 Symbolic Z-matrix:
 Charge =  0 Multiplicity = 1
 6                     0.88808  -0.26112   9.54386 
 6                    -0.23536  -0.44048   8.68857 
 16                    1.02017   0.96265   10.79824 
 16                   -1.71227   0.53224   8.77305 
 6                    -0.67349   1.08449   11.30891 
 6                    -1.75488   0.91457   10.50308 
 6                     1.88597  -1.14723   9.19127 
 7                    -0.147    -1.36418   7.76292 
 16                    1.35156  -2.08532   7.83509 
 6                    -0.81982   1.43428   12.68271 
 7                    -0.88823   1.74371   13.80109 
 6                    -3.07927   1.08189   11.00502 
 7                    -4.17403   1.23662   11.36348 
 6                     3.1695   -1.30122   9.76921 
 7                     4.23024  -1.43508   10.22528 
 
                    Distance matrix (angstroms):
                    1          2          3          4          5
     1  C    0.000000
     2  C    1.423315   0.000000
     3  S    1.757418   2.827694   0.000000
     4  S    2.825849   1.770477   3.428253   0.000000
     5  C    2.713774   3.063280   1.773167   2.795470   0.000000
     6  C    3.047557   2.727187   2.791121   1.772288   1.359281
     7  C    1.380327   2.291783   2.789903   3.992857   4.001979
     8  N    2.336642   1.310672   3.998700   2.658358   4.341342
     9  S    2.542129   2.439721   4.263822   4.137445   5.120151
    10  C    3.955208   4.450782   2.675676   4.110426   1.425163
    11  N    5.029770   5.597745   3.642685   5.237162   2.586817
    12  C    4.436049   3.971317   4.106384   2.674416   2.424897
    13  N    5.583831   5.047859   5.232040   3.642352   3.504263
    14  C    2.517432   3.674472   3.286888   5.309014   4.778168
    15  N    3.607292   4.826214   4.047461   6.425950   5.618639
                    6          7          8          9         10
     6  C    0.000000
     7  C    4.384939   0.000000
     8  N    3.909794   2.494036   0.000000
     9  S    5.076167   1.733444   1.664607   0.000000
    10  C    2.428007   5.116215   5.699860   6.371958   0.000000
    11  N    3.509330   6.107712   6.831389   7.434461   1.162408
    12  C    1.426163   5.736923   5.009263   6.301738   2.836178
    13  N    2.587713   6.864751   5.995430   7.349618   3.609722
    14  C    5.449573   1.416040   3.876636   2.767765   5.646781
    15  N    6.435818   2.578302   5.022796   3.797715   6.306769
                   11         12         13         14         15
    11  N    0.000000
    12  C    3.613393   0.000000
    13  N    4.122555   1.162293   0.000000
    14  C    6.480188   6.800997   7.931563   0.000000
    15  N    7.006418   7.769948   8.891861   1.162367   0.000000
 Symmetry turned off by external request.
 Framework group  C1[X(C8N4S3)]
 Deg. of freedom    39
 Rotational constants (GHZ):      0.7722167      0.3388923      0.2463240
   357 basis functions,   759 primitive gaussians,   387 cartesian basis functions
    62 alpha electrons       62 beta electrons
       nuclear repulsion energy      1166.1400396101 Hartrees.
 IMHF & INEx in M05                  599485                  400514
 NAtoms=   15 NActive=   15 NUniq=   15 SFac= 1.00D+00 NAtFMM=   60 NAOKFM=F Big=F
 PrsmSu:  requested number of processors reduced to:  34 ShMem   1 Linda.
 ExpMin= 3.99D-02 ExpMax= 1.11D+05 ExpMxC= 1.07D+03 IAcc=3 IRadAn=         5 AccDes= 0.00D+00
 Harris functional with IExCor= 1009 and IRadAn=       5 diagonalized for initial guess.
 HarFok:  IExCor= 1009 AccDes= 0.00D+00 IRadAn=         5 IDoV= 1 UseB2=F ITyADJ=14
 ICtDFT=  3500011 ScaDFX=  1.000000  1.000000  1.000000  1.000000
 FoFCou: FMM=F IPFlag=           0 FMFlag=      100000 FMFlg1=           0
         NFxFlg=           0 DoJE=T BraDBF=F KetDBF=T FulRan=T
         wScrn=  0.000000 ICntrl=     500 IOpCl=  0 I1Cent=   200000004 NGrid=           0
         NMat0=    1 NMatS0=      1 NMatT0=    0 NMatD0=    1 NMtDS0=    0 NMtDT0=    0
 Symmetry not used in FoFCou.
 SCF Done:  E(RM05) =  -1724.76147246     A.U. after   17 cycles
            NFock= 17  Conv=0.52D-08     -V/T= 2.0061

 **********************************************************************

            Population analysis using the SCF density.

 **********************************************************************

 Alpha  occ. eigenvalues --  -90.56429 -90.53637 -90.53182 -15.08622 -15.05417
 Alpha  occ. eigenvalues --  -15.04969 -15.04934 -10.89945 -10.89827 -10.89736
 Alpha  occ. eigenvalues --  -10.88752 -10.87415 -10.84947 -10.84332 -10.84310
 Alpha  occ. eigenvalues --   -8.57525  -8.55036  -8.54609  -6.40062  -6.39712
 Alpha  occ. eigenvalues --   -6.39400  -6.37598  -6.37283  -6.37163  -6.36853
 Alpha  occ. eigenvalues --   -6.36822  -6.36393  -1.20533  -1.12895  -1.12139
 Alpha  occ. eigenvalues --   -1.11337  -1.07643  -1.03801  -0.98824  -0.97396
 Alpha  occ. eigenvalues --   -0.88003  -0.84555  -0.82236  -0.73687  -0.71296
 Alpha  occ. eigenvalues --   -0.67839  -0.64612  -0.59530  -0.57258  -0.55386
 Alpha  occ. eigenvalues --   -0.53385  -0.52648  -0.52243  -0.51890  -0.50883
 Alpha  occ. eigenvalues --   -0.50387  -0.49356  -0.48215  -0.46805  -0.46074
 Alpha  occ. eigenvalues --   -0.45933  -0.45296  -0.43720  -0.43113  -0.39488
 Alpha  occ. eigenvalues --   -0.37628  -0.33120
 Alpha virt. eigenvalues --   -0.09329  -0.08268  -0.02099  -0.01261  -0.00503
 Alpha virt. eigenvalues --   -0.00360   0.00153   0.01254   0.02021   0.02228
 Alpha virt. eigenvalues --    0.02395   0.02957   0.03189   0.04002   0.04277
 Alpha virt. eigenvalues --    0.04487   0.05427   0.06006   0.06298   0.07066
 Alpha virt. eigenvalues --    0.07273   0.07524   0.07708   0.08290   0.08492
 Alpha virt. eigenvalues --    0.09375   0.10093   0.10392   0.10526   0.10814
 Alpha virt. eigenvalues --    0.11285   0.11390   0.11978   0.12528   0.13227
 Alpha virt. eigenvalues --    0.13488   0.13939   0.14455   0.15075   0.15192
 Alpha virt. eigenvalues --    0.15902   0.16273   0.16677   0.16812   0.17189
 Alpha virt. eigenvalues --    0.17364   0.17841   0.18612   0.19048   0.19563
 Alpha virt. eigenvalues --    0.19866   0.20245   0.20682   0.20942   0.21268
 Alpha virt. eigenvalues --    0.21881   0.22208   0.22581   0.22821   0.23614
 Alpha virt. eigenvalues --    0.23749   0.24108   0.24369   0.24704   0.25257
 Alpha virt. eigenvalues --    0.25694   0.25852   0.26224   0.26626   0.26745
 Alpha virt. eigenvalues --    0.27067   0.28336   0.29195   0.29662   0.30367
 Alpha virt. eigenvalues --    0.30710   0.32421   0.33455   0.34155   0.34714
 Alpha virt. eigenvalues --    0.34948   0.35472   0.36121   0.36933   0.37593
 Alpha virt. eigenvalues --    0.38152   0.39577   0.40728   0.41169   0.42048
 Alpha virt. eigenvalues --    0.42122   0.43486   0.44135   0.45737   0.45980
 Alpha virt. eigenvalues --    0.46960   0.48552   0.49570   0.50234   0.50594
 Alpha virt. eigenvalues --    0.51523   0.51856   0.53526   0.54166   0.54423
 Alpha virt. eigenvalues --    0.54703   0.55465   0.55729   0.55839   0.56451
 Alpha virt. eigenvalues --    0.57769   0.58138   0.58553   0.59214   0.60308
 Alpha virt. eigenvalues --    0.60553   0.61095   0.61587   0.62107   0.62708
 Alpha virt. eigenvalues --    0.63708   0.64714   0.64951   0.66004   0.66556
 Alpha virt. eigenvalues --    0.67690   0.68186   0.68808   0.70104   0.70415
 Alpha virt. eigenvalues --    0.71046   0.72861   0.73470   0.73854   0.75372
 Alpha virt. eigenvalues --    0.75563   0.76458   0.77061   0.77551   0.77842
 Alpha virt. eigenvalues --    0.78245   0.79255   0.79761   0.79877   0.81110
 Alpha virt. eigenvalues --    0.81536   0.82546   0.83279   0.83955   0.84872
 Alpha virt. eigenvalues --    0.85697   0.85938   0.87123   0.87247   0.88405
 Alpha virt. eigenvalues --    0.88458   0.89343   0.89666   0.89831   0.90733
 Alpha virt. eigenvalues --    0.91171   0.91722   0.92831   0.93723   0.94370
 Alpha virt. eigenvalues --    0.95433   0.95567   0.97326   0.98747   0.99312
 Alpha virt. eigenvalues --    0.99850   1.01210   1.02848   1.03578   1.04750
 Alpha virt. eigenvalues --    1.05760   1.06746   1.08038   1.08543   1.09637
 Alpha virt. eigenvalues --    1.10233   1.11400   1.13196   1.13607   1.14402
 Alpha virt. eigenvalues --    1.15321   1.17101   1.18341   1.20285   1.20635
 Alpha virt. eigenvalues --    1.21610   1.22700   1.23932   1.24222   1.26558
 Alpha virt. eigenvalues --    1.27346   1.29760   1.30251   1.32266   1.34126
 Alpha virt. eigenvalues --    1.37312   1.40083   1.40259   1.41566   1.42731
 Alpha virt. eigenvalues --    1.43618   1.45025   1.46463   1.47274   1.49370
 Alpha virt. eigenvalues --    1.49825   1.50471   1.51644   1.51872   1.52332
 Alpha virt. eigenvalues --    1.53713   1.54194   1.55432   1.56137   1.56449
 Alpha virt. eigenvalues --    1.56791   1.58488   1.59727   1.60390   1.60518
 Alpha virt. eigenvalues --    1.62129   1.63283   1.64917   1.66029   1.67549
 Alpha virt. eigenvalues --    1.68612   1.69174   1.70471   1.71322   1.74149
 Alpha virt. eigenvalues --    1.76827   1.77077   1.79015   1.79378   1.81039
 Alpha virt. eigenvalues --    1.82957   1.85918   1.88149   1.89706   1.90607
 Alpha virt. eigenvalues --    1.91370   1.94483   1.95007   1.97393   2.00537
 Alpha virt. eigenvalues --    2.00825   2.05448   2.07035   2.08350   2.08474
 Alpha virt. eigenvalues --    2.10897   2.13936   2.18608   2.20234   2.24594
 Alpha virt. eigenvalues --    2.27647   2.30686   2.37025   2.37402   2.38001
 Alpha virt. eigenvalues --    2.38280   2.39369   2.39930   2.40471   2.42150
 Alpha virt. eigenvalues --    2.42559   2.43755   2.45056   2.51018   2.54994
 Alpha virt. eigenvalues --    2.61159   2.64122   2.68329   2.71898   2.73263
 Alpha virt. eigenvalues --    2.76308   2.78779   2.81841   2.94680   2.99731
 Alpha virt. eigenvalues --    3.01876   3.09943   3.11451   3.15939   3.17851
 Alpha virt. eigenvalues --    3.24291   3.27128   3.35295   3.59309   3.74892
          Condensed to atoms (all electrons):
 Mulliken charges:
               1
     1  C    0.620484
     2  C   -0.109430
     3  S    0.374000
     4  S    0.296597
     5  C    1.040880
     6  C    1.130208
     7  C    0.786498
     8  N   -1.083185
     9  S    0.557510
    10  C   -1.129483
    11  N   -0.167735
    12  C   -1.100153
    13  N   -0.180279
    14  C   -0.852937
    15  N   -0.182975
 Sum of Mulliken charges =  -0.00000
 Mulliken charges with hydrogens summed into heavy atoms:
               1
     1  C    0.620484
     2  C   -0.109430
     3  S    0.374000
     4  S    0.296597
     5  C    1.040880
     6  C    1.130208
     7  C    0.786498
     8  N   -1.083185
     9  S    0.557510
    10  C   -1.129483
    11  N   -0.167735
    12  C   -1.100153
    13  N   -0.180279
    14  C   -0.852937
    15  N   -0.182975
 Electronic spatial extent (au):  <R**2>=          48126.1257
 Charge=             -0.0000 electrons
 Dipole moment (field-independent basis, Debye):
    X=              1.3780    Y=             -1.0265    Z=             -4.3590  Tot=              4.6854

 Test job not archived.
 1\1\GINC-CHIMERA-NODE47\SP\RM05\Gen\C8N4S3\CONNORNM\19-Jan-2019\0\\#T 
 M05/Gen test Massage SCF=(fermi,maxcyc=60)\\M05 opt\\0,1\C,0,0.8880817
 2,-0.26111732,9.54386103\C,0,-0.23536463,-0.44048223,8.68856975\S,0,1.
 02017149,0.96264898,10.79823935\S,0,-1.7122745,0.53224035,8.77304671\C
 ,0,-0.67349103,1.08449339,11.3089088\C,0,-1.75488294,0.91457134,10.503
 07874\C,0,1.88596984,-1.14723434,9.19127181\N,0,-0.14699759,-1.3641816
 7,7.76291828\S,0,1.35155704,-2.08532093,7.83509222\C,0,-0.8198236,1.43
 427604,12.68270956\N,0,-0.88823488,1.74370896,13.80108525\C,0,-3.07926
 942,1.08188954,11.00502195\N,0,-4.1740251,1.23661864,11.36348401\C,0,3
 .16949788,-1.3012243,9.76920892\N,0,4.23024218,-1.43507984,10.22527924
 \\Version=AS64L-G09RevD.01\HF=-1724.7614725\RMSD=5.170e-09\Dipole=0.54
 21547,-0.4038438,-1.7149498\Quadrupole=11.2898127,31.8857275,-43.17554
 02,4.3949482,12.0039506,-10.8123789\PG=C01 [X(C8N4S3)]\\@


 REFRAIN FROM ILLUSIONS, INSIST ON WORK AND NOT WORDS,
 PATIENTLY SEEK DIVINE AND SCIENTIFIC TRUTH.
 LAST WORDS OF MARIA MENDELEEVA TO HER SON DMITRI, C. 1850
 Job cpu time:       0 days  1 hours 54 minutes 33.7 seconds.
 File lengths (MBytes):  RWF=     58 Int=      0 D2E=      0 Chk=      6 Scr=      1
 Normal termination of Gaussian 09 at Sat Jan 19 10:48:46 2019.
