 Entering Gaussian System, Link 0=/data/szalewicgrp/connornm/opt/Gaussian/g09-M05-par/g09/g09
 AtFile(1): blind-aug.gbs
 Initial command:
 /data/szalewicgrp/connornm/opt/Gaussian/g09-M05-par/g09/l1.exe "/scratch/local/Gau-40764.inp" -scrdir="/scratch/local/"
 Entering Link 1 = /data/szalewicgrp/connornm/opt/Gaussian/g09-M05-par/g09/l1.exe PID=     40765.
  
 Copyright (c) 1988,1990,1992,1993,1995,1998,2003,2009,2013,
            Gaussian, Inc.  All Rights Reserved.
  
 This is part of the Gaussian(R) 09 program.  It is based on
 the Gaussian(R) 03 system (copyright 2003, Gaussian, Inc.),
 the Gaussian(R) 98 system (copyright 1998, Gaussian, Inc.),
 the Gaussian(R) 94 system (copyright 1995, Gaussian, Inc.),
 the Gaussian 92(TM) system (copyright 1992, Gaussian, Inc.),
 the Gaussian 90(TM) system (copyright 1990, Gaussian, Inc.),
 the Gaussian 88(TM) system (copyright 1988, Gaussian, Inc.),
 the Gaussian 86(TM) system (copyright 1986, Carnegie Mellon
 University), and the Gaussian 82(TM) system (copyright 1983,
 Carnegie Mellon University). Gaussian is a federally registered
 trademark of Gaussian, Inc.
  
 This software contains proprietary and confidential information,
 including trade secrets, belonging to Gaussian, Inc.
  
 This software is provided under written license and may be
 used, copied, transmitted, or stored only in accord with that
 written license.
  
 The following legend is applicable only to US Government
 contracts under FAR:
  
                    RESTRICTED RIGHTS LEGEND
  
 Use, reproduction and disclosure by the US Government is
 subject to restrictions as set forth in subparagraphs (a)
 and (c) of the Commercial Computer Software - Restricted
 Rights clause in FAR 52.227-19.
  
 Gaussian, Inc.
 340 Quinnipiac St., Bldg. 40, Wallingford CT 06492
  
  
 ---------------------------------------------------------------
 Warning -- This program may not be used in any manner that
 competes with the business of Gaussian, Inc. or will provide
 assistance to any competitor of Gaussian, Inc.  The licensee
 of this program is prohibited from giving any competitor of
 Gaussian, Inc. access to this program.  By using this program,
 the user acknowledges that Gaussian, Inc. is engaged in the
 business of creating and licensing software in the field of
 computational chemistry and represents and warrants to the
 licensee that it is not a competitor of Gaussian, Inc. and that
 it will not use this program in any manner prohibited above.
 ---------------------------------------------------------------
  

 Cite this work as:
 Gaussian 09, Revision D.01,
 M. J. Frisch, G. W. Trucks, H. B. Schlegel, G. E. Scuseria, 
 M. A. Robb, J. R. Cheeseman, G. Scalmani, V. Barone, B. Mennucci, 
 G. A. Petersson, H. Nakatsuji, M. Caricato, X. Li, H. P. Hratchian, 
 A. F. Izmaylov, J. Bloino, G. Zheng, J. L. Sonnenberg, M. Hada, 
 M. Ehara, K. Toyota, R. Fukuda, J. Hasegawa, M. Ishida, T. Nakajima, 
 Y. Honda, O. Kitao, H. Nakai, T. Vreven, J. A. Montgomery, Jr., 
 J. E. Peralta, F. Ogliaro, M. Bearpark, J. J. Heyd, E. Brothers, 
 K. N. Kudin, V. N. Staroverov, T. Keith, R. Kobayashi, J. Normand, 
 K. Raghavachari, A. Rendell, J. C. Burant, S. S. Iyengar, J. Tomasi, 
 M. Cossi, N. Rega, J. M. Millam, M. Klene, J. E. Knox, J. B. Cross, 
 V. Bakken, C. Adamo, J. Jaramillo, R. Gomperts, R. E. Stratmann, 
 O. Yazyev, A. J. Austin, R. Cammi, C. Pomelli, J. W. Ochterski, 
 R. L. Martin, K. Morokuma, V. G. Zakrzewski, G. A. Voth, 
 P. Salvador, J. J. Dannenberg, S. Dapprich, A. D. Daniels, 
 O. Farkas, J. B. Foresman, J. V. Ortiz, J. Cioslowski, 
 and D. J. Fox, Gaussian, Inc., Wallingford CT, 2013.
 
 ******************************************
 Gaussian 09:  AS64L-G09RevD.01 24-Apr-2013
                19-Jan-2019 
 ******************************************
 %Chk=BLIND02424_mB
 %Mem=1GB
 %NProcShared=48
 Will use up to   48 processors via shared memory.
 ---------------------------------------------
 #T M05/Gen test Massage SCF=(fermi,maxcyc=60)
 ---------------------------------------------
 -------
 M05 opt
 -------
 Symbolic Z-matrix:
 Charge =  0 Multiplicity = 1
 6                     0.11257   0.55761   8.2956 
 6                    -0.98149  -0.35119   8.35007 
 16                    1.59852   0.3       7.39333 
 16                   -1.03538  -1.89267   7.48088 
 6                     0.98126  -0.62859   6.01462 
 6                    -0.06262  -1.49836   6.05285 
 6                    -0.14077   1.63861   9.1157 
 7                    -1.99242  -0.0322    9.12087 
 16                   -1.67793   1.41309   9.88453 
 6                     1.72653  -0.41642   4.81853 
 7                     2.37878  -0.22915   3.87476 
 6                    -0.45012  -2.23313   4.89359 
 7                    -0.78179  -2.8739    3.98236 
 6                     0.68139   2.76406   9.36588 
 7                     1.3471    3.69016   9.59004 
 
                    Distance matrix (angstroms):
                    1          2          3          4          5
     1  C    0.000000
     2  C    1.423315   0.000000
     3  S    1.757418   2.827694   0.000000
     4  S    2.825849   1.770477   3.428253   0.000000
     5  C    2.713774   3.063280   1.773167   2.795470   0.000000
     6  C    3.047557   2.727187   2.791121   1.772288   1.359281
     7  C    1.380327   2.291783   2.789903   3.992857   4.001979
     8  N    2.336642   1.310672   3.998700   2.658358   4.341342
     9  S    2.542129   2.439721   4.263822   4.137445   5.120151
    10  C    3.955208   4.450782   2.675676   4.110426   1.425163
    11  N    5.029770   5.597745   3.642685   5.237162   2.586817
    12  C    4.436049   3.971317   4.106384   2.674416   2.424897
    13  N    5.583831   5.047859   5.232040   3.642352   3.504263
    14  C    2.517432   3.674472   3.286888   5.309014   4.778168
    15  N    3.607292   4.826214   4.047461   6.425950   5.618639
                    6          7          8          9         10
     6  C    0.000000
     7  C    4.384939   0.000000
     8  N    3.909794   2.494036   0.000000
     9  S    5.076167   1.733444   1.664607   0.000000
    10  C    2.428007   5.116215   5.699860   6.371958   0.000000
    11  N    3.509330   6.107712   6.831389   7.434461   1.162408
    12  C    1.426163   5.736923   5.009263   6.301738   2.836178
    13  N    2.587713   6.864751   5.995430   7.349618   3.609722
    14  C    5.449573   1.416040   3.876636   2.767765   5.646781
    15  N    6.435818   2.578302   5.022796   3.797715   6.306769
                   11         12         13         14         15
    11  N    0.000000
    12  C    3.613393   0.000000
    13  N    4.122555   1.162293   0.000000
    14  C    6.480188   6.800997   7.931563   0.000000
    15  N    7.006418   7.769948   8.891861   1.162367   0.000000
 Symmetry turned off by external request.
 Framework group  C1[X(C8N4S3)]
 Deg. of freedom    39
 Rotational constants (GHZ):      0.7722167      0.3388923      0.2463240
   357 basis functions,   759 primitive gaussians,   387 cartesian basis functions
    62 alpha electrons       62 beta electrons
       nuclear repulsion energy      1166.1400397758 Hartrees.
 IMHF & INEx in M05                  599485                  400514
 NAtoms=   15 NActive=   15 NUniq=   15 SFac= 1.00D+00 NAtFMM=   60 NAOKFM=F Big=F
 PrsmSu:  requested number of processors reduced to:  34 ShMem   1 Linda.
 ExpMin= 3.99D-02 ExpMax= 1.11D+05 ExpMxC= 1.07D+03 IAcc=3 IRadAn=         5 AccDes= 0.00D+00
 Harris functional with IExCor= 1009 and IRadAn=       5 diagonalized for initial guess.
 HarFok:  IExCor= 1009 AccDes= 0.00D+00 IRadAn=         5 IDoV= 1 UseB2=F ITyADJ=14
 ICtDFT=  3500011 ScaDFX=  1.000000  1.000000  1.000000  1.000000
 FoFCou: FMM=F IPFlag=           0 FMFlag=      100000 FMFlg1=           0
         NFxFlg=           0 DoJE=T BraDBF=F KetDBF=T FulRan=T
         wScrn=  0.000000 ICntrl=     500 IOpCl=  0 I1Cent=   200000004 NGrid=           0
         NMat0=    1 NMatS0=      1 NMatT0=    0 NMatD0=    1 NMtDS0=    0 NMtDT0=    0
 Symmetry not used in FoFCou.
 SCF Done:  E(RM05) =  -1724.76147039     A.U. after   17 cycles
            NFock= 17  Conv=0.51D-08     -V/T= 2.0061

 **********************************************************************

            Population analysis using the SCF density.

 **********************************************************************

 Alpha  occ. eigenvalues --  -90.56430 -90.53635 -90.53181 -15.08621 -15.05417
 Alpha  occ. eigenvalues --  -15.04969 -15.04934 -10.89945 -10.89826 -10.89736
 Alpha  occ. eigenvalues --  -10.88752 -10.87415 -10.84947 -10.84331 -10.84311
 Alpha  occ. eigenvalues --   -8.57525  -8.55035  -8.54609  -6.40063  -6.39712
 Alpha  occ. eigenvalues --   -6.39401  -6.37596  -6.37282  -6.37162  -6.36852
 Alpha  occ. eigenvalues --   -6.36821  -6.36392  -1.20533  -1.12895  -1.12139
 Alpha  occ. eigenvalues --   -1.11337  -1.07643  -1.03801  -0.98824  -0.97396
 Alpha  occ. eigenvalues --   -0.88003  -0.84555  -0.82236  -0.73687  -0.71296
 Alpha  occ. eigenvalues --   -0.67838  -0.64612  -0.59530  -0.57258  -0.55386
 Alpha  occ. eigenvalues --   -0.53384  -0.52648  -0.52243  -0.51890  -0.50883
 Alpha  occ. eigenvalues --   -0.50387  -0.49356  -0.48215  -0.46805  -0.46074
 Alpha  occ. eigenvalues --   -0.45933  -0.45296  -0.43720  -0.43113  -0.39488
 Alpha  occ. eigenvalues --   -0.37627  -0.33119
 Alpha virt. eigenvalues --   -0.09329  -0.08269  -0.02099  -0.01264  -0.00508
 Alpha virt. eigenvalues --   -0.00362   0.00153   0.01255   0.02017   0.02230
 Alpha virt. eigenvalues --    0.02392   0.02955   0.03188   0.04001   0.04276
 Alpha virt. eigenvalues --    0.04485   0.05427   0.06003   0.06295   0.07067
 Alpha virt. eigenvalues --    0.07268   0.07525   0.07706   0.08288   0.08488
 Alpha virt. eigenvalues --    0.09376   0.10095   0.10391   0.10523   0.10809
 Alpha virt. eigenvalues --    0.11285   0.11392   0.11977   0.12526   0.13227
 Alpha virt. eigenvalues --    0.13487   0.13937   0.14453   0.15078   0.15189
 Alpha virt. eigenvalues --    0.15905   0.16269   0.16672   0.16812   0.17188
 Alpha virt. eigenvalues --    0.17353   0.17833   0.18611   0.19047   0.19555
 Alpha virt. eigenvalues --    0.19858   0.20238   0.20679   0.20944   0.21267
 Alpha virt. eigenvalues --    0.21884   0.22205   0.22581   0.22824   0.23617
 Alpha virt. eigenvalues --    0.23741   0.24120   0.24368   0.24701   0.25258
 Alpha virt. eigenvalues --    0.25696   0.25843   0.26228   0.26621   0.26749
 Alpha virt. eigenvalues --    0.27073   0.28337   0.29198   0.29664   0.30369
 Alpha virt. eigenvalues --    0.30714   0.32421   0.33455   0.34150   0.34712
 Alpha virt. eigenvalues --    0.34948   0.35471   0.36123   0.36938   0.37593
 Alpha virt. eigenvalues --    0.38151   0.39577   0.40726   0.41166   0.42046
 Alpha virt. eigenvalues --    0.42116   0.43485   0.44134   0.45733   0.45985
 Alpha virt. eigenvalues --    0.46962   0.48549   0.49565   0.50231   0.50586
 Alpha virt. eigenvalues --    0.51524   0.51859   0.53527   0.54170   0.54422
 Alpha virt. eigenvalues --    0.54701   0.55467   0.55732   0.55838   0.56452
 Alpha virt. eigenvalues --    0.57770   0.58142   0.58553   0.59218   0.60311
 Alpha virt. eigenvalues --    0.60554   0.61101   0.61582   0.62102   0.62705
 Alpha virt. eigenvalues --    0.63716   0.64713   0.64955   0.66007   0.66558
 Alpha virt. eigenvalues --    0.67686   0.68191   0.68805   0.70109   0.70413
 Alpha virt. eigenvalues --    0.71047   0.72862   0.73471   0.73852   0.75371
 Alpha virt. eigenvalues --    0.75565   0.76459   0.77063   0.77552   0.77842
 Alpha virt. eigenvalues --    0.78246   0.79257   0.79759   0.79878   0.81107
 Alpha virt. eigenvalues --    0.81536   0.82546   0.83268   0.83959   0.84872
 Alpha virt. eigenvalues --    0.85698   0.85939   0.87121   0.87248   0.88405
 Alpha virt. eigenvalues --    0.88459   0.89345   0.89660   0.89830   0.90734
 Alpha virt. eigenvalues --    0.91172   0.91721   0.92829   0.93720   0.94367
 Alpha virt. eigenvalues --    0.95434   0.95565   0.97324   0.98741   0.99316
 Alpha virt. eigenvalues --    0.99849   1.01205   1.02845   1.03575   1.04754
 Alpha virt. eigenvalues --    1.05757   1.06744   1.08037   1.08541   1.09635
 Alpha virt. eigenvalues --    1.10233   1.11401   1.13198   1.13605   1.14403
 Alpha virt. eigenvalues --    1.15321   1.17098   1.18344   1.20284   1.20631
 Alpha virt. eigenvalues --    1.21607   1.22700   1.23933   1.24222   1.26561
 Alpha virt. eigenvalues --    1.27344   1.29756   1.30251   1.32268   1.34126
 Alpha virt. eigenvalues --    1.37311   1.40084   1.40254   1.41567   1.42727
 Alpha virt. eigenvalues --    1.43614   1.45021   1.46465   1.47273   1.49373
 Alpha virt. eigenvalues --    1.49822   1.50473   1.51641   1.51870   1.52335
 Alpha virt. eigenvalues --    1.53715   1.54192   1.55430   1.56138   1.56449
 Alpha virt. eigenvalues --    1.56793   1.58489   1.59727   1.60387   1.60520
 Alpha virt. eigenvalues --    1.62129   1.63281   1.64920   1.66027   1.67545
 Alpha virt. eigenvalues --    1.68615   1.69173   1.70471   1.71324   1.74152
 Alpha virt. eigenvalues --    1.76826   1.77076   1.79017   1.79378   1.81040
 Alpha virt. eigenvalues --    1.82959   1.85919   1.88148   1.89702   1.90609
 Alpha virt. eigenvalues --    1.91368   1.94486   1.95007   1.97391   2.00538
 Alpha virt. eigenvalues --    2.00827   2.05448   2.07037   2.08351   2.08472
 Alpha virt. eigenvalues --    2.10894   2.13937   2.18605   2.20230   2.24592
 Alpha virt. eigenvalues --    2.27645   2.30686   2.37025   2.37402   2.38001
 Alpha virt. eigenvalues --    2.38279   2.39370   2.39930   2.40471   2.42148
 Alpha virt. eigenvalues --    2.42558   2.43756   2.45055   2.51011   2.54995
 Alpha virt. eigenvalues --    2.61160   2.64130   2.68330   2.71898   2.73263
 Alpha virt. eigenvalues --    2.76308   2.78780   2.81841   2.94681   2.99730
 Alpha virt. eigenvalues --    3.01876   3.09941   3.11449   3.15939   3.17849
 Alpha virt. eigenvalues --    3.24293   3.27128   3.35292   3.59301   3.74891
          Condensed to atoms (all electrons):
 Mulliken charges:
               1
     1  C    0.619395
     2  C   -0.109222
     3  S    0.375349
     4  S    0.296791
     5  C    1.038869
     6  C    1.130865
     7  C    0.787449
     8  N   -1.083386
     9  S    0.557267
    10  C   -1.129287
    11  N   -0.167936
    12  C   -1.099751
    13  N   -0.180561
    14  C   -0.852812
    15  N   -0.183030
 Sum of Mulliken charges =  -0.00000
 Mulliken charges with hydrogens summed into heavy atoms:
               1
     1  C    0.619395
     2  C   -0.109222
     3  S    0.375349
     4  S    0.296791
     5  C    1.038869
     6  C    1.130865
     7  C    0.787449
     8  N   -1.083386
     9  S    0.557267
    10  C   -1.129287
    11  N   -0.167936
    12  C   -1.099751
    13  N   -0.180561
    14  C   -0.852812
    15  N   -0.183030
 Electronic spatial extent (au):  <R**2>=          28530.1311
 Charge=             -0.0000 electrons
 Dipole moment (field-independent basis, Debye):
    X=             -1.8084    Y=             -0.1648    Z=              4.3191  Tot=              4.6854

 Test job not archived.
 1\1\GINC-CHIMERA-NODE43\SP\RM05\Gen\C8N4S3\CONNORNM\19-Jan-2019\0\\#T 
 M05/Gen test Massage SCF=(fermi,maxcyc=60)\\M05 opt\\0,1\C,0,0.1125657
 7,0.55760651,8.29560244\C,0,-0.98148852,-0.35118648,8.35007413\S,0,1.5
 9851896,0.30000486,7.39332691\S,0,-1.03537782,-1.89267395,7.48087872\C
 ,0,0.98126338,-0.62859218,6.01462275\C,0,-0.06261911,-1.49835759,6.052
 85268\C,0,-0.14077264,1.63860842,9.11569862\N,0,-1.99241645,-0.0322012
 4,9.12087447\S,0,-1.67793494,1.41308503,9.88452747\C,0,1.72653448,-0.4
 1641912,4.81852775\N,0,2.37877633,-0.22915409,3.87475585\C,0,-0.450118
 95,-2.23313397,4.89359021\N,0,-0.78179024,-2.87390313,3.98236292\C,0,0
 .68138746,2.76405603,9.36587638\N,0,1.34709848,3.69016344,9.59004107\\
 Version=AS64L-G09RevD.01\HF=-1724.7614704\RMSD=5.129e-09\Dipole=-0.711
 4929,-0.0648545,1.6992773\Quadrupole=-11.0940772,-16.1992687,27.293345
 9,-7.410349,-9.4066394,-8.7330796\PG=C01 [X(C8N4S3)]\\@


 ALMOST ALL THE CHEMICAL PROCESSES WHICH OCCUR IN NATURE,
 WHETHER IN ANIMAL OR VEGETABLE ORGANISMS,
 OR IN THE NON-LIVING SURFACE OF THE EARTH ... 
 TAKE PLACE BETWEEN SUBSTANCES IN SOLUTION

                                    -- W. OSTWALD, 1890
 Job cpu time:       0 days  1 hours 55 minutes 16.3 seconds.
 File lengths (MBytes):  RWF=     58 Int=      0 D2E=      0 Chk=      6 Scr=      1
 Normal termination of Gaussian 09 at Sat Jan 19 10:45:52 2019.
