 Entering Gaussian System, Link 0=/data/szalewicgrp/connornm/opt/Gaussian/g09-M05-par/g09/g09
 AtFile(1): blind-aug.gbs
 Initial command:
 /data/szalewicgrp/connornm/opt/Gaussian/g09-M05-par/g09/l1.exe "/scratch/local/Gau-23023.inp" -scrdir="/scratch/local/"
 Entering Link 1 = /data/szalewicgrp/connornm/opt/Gaussian/g09-M05-par/g09/l1.exe PID=     23024.
  
 Copyright (c) 1988,1990,1992,1993,1995,1998,2003,2009,2013,
            Gaussian, Inc.  All Rights Reserved.
  
 This is part of the Gaussian(R) 09 program.  It is based on
 the Gaussian(R) 03 system (copyright 2003, Gaussian, Inc.),
 the Gaussian(R) 98 system (copyright 1998, Gaussian, Inc.),
 the Gaussian(R) 94 system (copyright 1995, Gaussian, Inc.),
 the Gaussian 92(TM) system (copyright 1992, Gaussian, Inc.),
 the Gaussian 90(TM) system (copyright 1990, Gaussian, Inc.),
 the Gaussian 88(TM) system (copyright 1988, Gaussian, Inc.),
 the Gaussian 86(TM) system (copyright 1986, Carnegie Mellon
 University), and the Gaussian 82(TM) system (copyright 1983,
 Carnegie Mellon University). Gaussian is a federally registered
 trademark of Gaussian, Inc.
  
 This software contains proprietary and confidential information,
 including trade secrets, belonging to Gaussian, Inc.
  
 This software is provided under written license and may be
 used, copied, transmitted, or stored only in accord with that
 written license.
  
 The following legend is applicable only to US Government
 contracts under FAR:
  
                    RESTRICTED RIGHTS LEGEND
  
 Use, reproduction and disclosure by the US Government is
 subject to restrictions as set forth in subparagraphs (a)
 and (c) of the Commercial Computer Software - Restricted
 Rights clause in FAR 52.227-19.
  
 Gaussian, Inc.
 340 Quinnipiac St., Bldg. 40, Wallingford CT 06492
  
  
 ---------------------------------------------------------------
 Warning -- This program may not be used in any manner that
 competes with the business of Gaussian, Inc. or will provide
 assistance to any competitor of Gaussian, Inc.  The licensee
 of this program is prohibited from giving any competitor of
 Gaussian, Inc. access to this program.  By using this program,
 the user acknowledges that Gaussian, Inc. is engaged in the
 business of creating and licensing software in the field of
 computational chemistry and represents and warrants to the
 licensee that it is not a competitor of Gaussian, Inc. and that
 it will not use this program in any manner prohibited above.
 ---------------------------------------------------------------
  

 Cite this work as:
 Gaussian 09, Revision D.01,
 M. J. Frisch, G. W. Trucks, H. B. Schlegel, G. E. Scuseria, 
 M. A. Robb, J. R. Cheeseman, G. Scalmani, V. Barone, B. Mennucci, 
 G. A. Petersson, H. Nakatsuji, M. Caricato, X. Li, H. P. Hratchian, 
 A. F. Izmaylov, J. Bloino, G. Zheng, J. L. Sonnenberg, M. Hada, 
 M. Ehara, K. Toyota, R. Fukuda, J. Hasegawa, M. Ishida, T. Nakajima, 
 Y. Honda, O. Kitao, H. Nakai, T. Vreven, J. A. Montgomery, Jr., 
 J. E. Peralta, F. Ogliaro, M. Bearpark, J. J. Heyd, E. Brothers, 
 K. N. Kudin, V. N. Staroverov, T. Keith, R. Kobayashi, J. Normand, 
 K. Raghavachari, A. Rendell, J. C. Burant, S. S. Iyengar, J. Tomasi, 
 M. Cossi, N. Rega, J. M. Millam, M. Klene, J. E. Knox, J. B. Cross, 
 V. Bakken, C. Adamo, J. Jaramillo, R. Gomperts, R. E. Stratmann, 
 O. Yazyev, A. J. Austin, R. Cammi, C. Pomelli, J. W. Ochterski, 
 R. L. Martin, K. Morokuma, V. G. Zakrzewski, G. A. Voth, 
 P. Salvador, J. J. Dannenberg, S. Dapprich, A. D. Daniels, 
 O. Farkas, J. B. Foresman, J. V. Ortiz, J. Cioslowski, 
 and D. J. Fox, Gaussian, Inc., Wallingford CT, 2013.
 
 ******************************************
 Gaussian 09:  AS64L-G09RevD.01 24-Apr-2013
                19-Jan-2019 
 ******************************************
 %Chk=BLIND00456_mA
 %Mem=1GB
 %NProcShared=48
 Will use up to   48 processors via shared memory.
 ---------------------------------------------
 #T M05/Gen test Massage SCF=(fermi,maxcyc=60)
 ---------------------------------------------
 -------
 M05 opt
 -------
 Symbolic Z-matrix:
 Charge =  0 Multiplicity = 1
 6                    -0.68102   0.75535   0.08225 
 6                     0.28595   0.96573  -0.94075 
 16                   -1.26982  -0.81368   0.61138 
 16                    1.08496  -0.3373   -1.83422 
 6                     0.18313  -1.80101   0.37007 
 6                     1.11439  -1.61035  -0.60155 
 6                    -1.13847   1.97236   0.54586 
 7                     0.57054   2.20581  -1.25553 
 16                   -0.35544   3.24123  -0.33826 
 6                     0.28053  -2.88678   1.28806 
 7                     0.30387  -3.77081   2.04248 
 6                     2.22562  -2.49375  -0.73828 
 7                     3.13008  -3.20446  -0.90494 
 6                    -2.10723   2.22373   1.5476 
 7                    -2.90685   2.44851   2.36073 
 
                    Distance matrix (angstroms):
                    1          2          3          4          5
     1  C    0.000000
     2  C    1.423315   0.000000
     3  S    1.757418   2.827694   0.000000
     4  S    2.825849   1.770477   3.428253   0.000000
     5  C    2.713774   3.063280   1.773167   2.795470   0.000000
     6  C    3.047557   2.727187   2.791121   1.772288   1.359281
     7  C    1.380327   2.291783   2.789903   3.992857   4.001979
     8  N    2.336642   1.310672   3.998700   2.658358   4.341342
     9  S    2.542129   2.439721   4.263822   4.137445   5.120151
    10  C    3.955208   4.450782   2.675676   4.110426   1.425163
    11  N    5.029770   5.597745   3.642685   5.237162   2.586817
    12  C    4.436049   3.971317   4.106384   2.674416   2.424897
    13  N    5.583831   5.047859   5.232040   3.642352   3.504263
    14  C    2.517432   3.674472   3.286888   5.309014   4.778168
    15  N    3.607292   4.826214   4.047461   6.425950   5.618639
                    6          7          8          9         10
     6  C    0.000000
     7  C    4.384939   0.000000
     8  N    3.909794   2.494036   0.000000
     9  S    5.076167   1.733444   1.664607   0.000000
    10  C    2.428007   5.116215   5.699860   6.371958   0.000000
    11  N    3.509330   6.107712   6.831389   7.434461   1.162408
    12  C    1.426163   5.736923   5.009263   6.301738   2.836178
    13  N    2.587713   6.864751   5.995430   7.349618   3.609722
    14  C    5.449573   1.416040   3.876636   2.767765   5.646781
    15  N    6.435818   2.578302   5.022796   3.797715   6.306769
                   11         12         13         14         15
    11  N    0.000000
    12  C    3.613393   0.000000
    13  N    4.122555   1.162293   0.000000
    14  C    6.480188   6.800997   7.931563   0.000000
    15  N    7.006418   7.769948   8.891861   1.162367   0.000000
 Symmetry turned off by external request.
 Framework group  C1[X(C8N4S3)]
 Deg. of freedom    39
 Rotational constants (GHZ):      0.7722167      0.3388923      0.2463240
   357 basis functions,   759 primitive gaussians,   387 cartesian basis functions
    62 alpha electrons       62 beta electrons
       nuclear repulsion energy      1166.1400399830 Hartrees.
 IMHF & INEx in M05                  599485                  400514
 NAtoms=   15 NActive=   15 NUniq=   15 SFac= 1.00D+00 NAtFMM=   60 NAOKFM=F Big=F
 PrsmSu:  requested number of processors reduced to:  34 ShMem   1 Linda.
 ExpMin= 3.99D-02 ExpMax= 1.11D+05 ExpMxC= 1.07D+03 IAcc=3 IRadAn=         5 AccDes= 0.00D+00
 Harris functional with IExCor= 1009 and IRadAn=       5 diagonalized for initial guess.
 HarFok:  IExCor= 1009 AccDes= 0.00D+00 IRadAn=         5 IDoV= 1 UseB2=F ITyADJ=14
 ICtDFT=  3500011 ScaDFX=  1.000000  1.000000  1.000000  1.000000
 FoFCou: FMM=F IPFlag=           0 FMFlag=      100000 FMFlg1=           0
         NFxFlg=           0 DoJE=T BraDBF=F KetDBF=T FulRan=T
         wScrn=  0.000000 ICntrl=     500 IOpCl=  0 I1Cent=   200000004 NGrid=           0
         NMat0=    1 NMatS0=      1 NMatT0=    0 NMatD0=    1 NMtDS0=    0 NMtDT0=    0
 Symmetry not used in FoFCou.
 SCF Done:  E(RM05) =  -1724.76150164     A.U. after   17 cycles
            NFock= 17  Conv=0.51D-08     -V/T= 2.0061

 **********************************************************************

            Population analysis using the SCF density.

 **********************************************************************

 Alpha  occ. eigenvalues --  -90.56430 -90.53636 -90.53181 -15.08621 -15.05417
 Alpha  occ. eigenvalues --  -15.04969 -15.04933 -10.89945 -10.89827 -10.89735
 Alpha  occ. eigenvalues --  -10.88752 -10.87414 -10.84946 -10.84332 -10.84310
 Alpha  occ. eigenvalues --   -8.57525  -8.55035  -8.54608  -6.40063  -6.39712
 Alpha  occ. eigenvalues --   -6.39401  -6.37597  -6.37283  -6.37162  -6.36852
 Alpha  occ. eigenvalues --   -6.36822  -6.36392  -1.20532  -1.12895  -1.12139
 Alpha  occ. eigenvalues --   -1.11337  -1.07643  -1.03801  -0.98824  -0.97396
 Alpha  occ. eigenvalues --   -0.88002  -0.84555  -0.82236  -0.73687  -0.71296
 Alpha  occ. eigenvalues --   -0.67839  -0.64612  -0.59530  -0.57258  -0.55386
 Alpha  occ. eigenvalues --   -0.53385  -0.52647  -0.52243  -0.51890  -0.50883
 Alpha  occ. eigenvalues --   -0.50387  -0.49356  -0.48215  -0.46805  -0.46074
 Alpha  occ. eigenvalues --   -0.45933  -0.45296  -0.43720  -0.43113  -0.39488
 Alpha  occ. eigenvalues --   -0.37627  -0.33120
 Alpha virt. eigenvalues --   -0.09329  -0.08268  -0.02098  -0.01263  -0.00501
 Alpha virt. eigenvalues --   -0.00362   0.00153   0.01255   0.02022   0.02231
 Alpha virt. eigenvalues --    0.02397   0.02956   0.03193   0.04003   0.04279
 Alpha virt. eigenvalues --    0.04487   0.05428   0.06007   0.06298   0.07067
 Alpha virt. eigenvalues --    0.07274   0.07525   0.07708   0.08290   0.08491
 Alpha virt. eigenvalues --    0.09379   0.10092   0.10395   0.10527   0.10815
 Alpha virt. eigenvalues --    0.11286   0.11390   0.11979   0.12528   0.13229
 Alpha virt. eigenvalues --    0.13492   0.13939   0.14454   0.15075   0.15190
 Alpha virt. eigenvalues --    0.15902   0.16275   0.16676   0.16812   0.17191
 Alpha virt. eigenvalues --    0.17361   0.17830   0.18614   0.19054   0.19561
 Alpha virt. eigenvalues --    0.19869   0.20245   0.20686   0.20951   0.21268
 Alpha virt. eigenvalues --    0.21887   0.22208   0.22583   0.22829   0.23615
 Alpha virt. eigenvalues --    0.23747   0.24123   0.24373   0.24705   0.25260
 Alpha virt. eigenvalues --    0.25694   0.25851   0.26227   0.26620   0.26745
 Alpha virt. eigenvalues --    0.27071   0.28334   0.29193   0.29664   0.30366
 Alpha virt. eigenvalues --    0.30712   0.32421   0.33459   0.34154   0.34714
 Alpha virt. eigenvalues --    0.34949   0.35470   0.36121   0.36936   0.37595
 Alpha virt. eigenvalues --    0.38151   0.39576   0.40724   0.41169   0.42047
 Alpha virt. eigenvalues --    0.42116   0.43486   0.44132   0.45734   0.45984
 Alpha virt. eigenvalues --    0.46957   0.48556   0.49574   0.50237   0.50587
 Alpha virt. eigenvalues --    0.51526   0.51860   0.53526   0.54170   0.54419
 Alpha virt. eigenvalues --    0.54700   0.55465   0.55731   0.55838   0.56450
 Alpha virt. eigenvalues --    0.57771   0.58141   0.58556   0.59216   0.60313
 Alpha virt. eigenvalues --    0.60552   0.61099   0.61587   0.62104   0.62712
 Alpha virt. eigenvalues --    0.63719   0.64717   0.64951   0.66008   0.66559
 Alpha virt. eigenvalues --    0.67692   0.68191   0.68804   0.70106   0.70416
 Alpha virt. eigenvalues --    0.71046   0.72863   0.73474   0.73854   0.75372
 Alpha virt. eigenvalues --    0.75565   0.76457   0.77064   0.77553   0.77845
 Alpha virt. eigenvalues --    0.78247   0.79253   0.79761   0.79880   0.81107
 Alpha virt. eigenvalues --    0.81537   0.82546   0.83275   0.83957   0.84872
 Alpha virt. eigenvalues --    0.85698   0.85940   0.87125   0.87247   0.88403
 Alpha virt. eigenvalues --    0.88459   0.89346   0.89665   0.89828   0.90731
 Alpha virt. eigenvalues --    0.91171   0.91723   0.92828   0.93720   0.94366
 Alpha virt. eigenvalues --    0.95432   0.95564   0.97323   0.98747   0.99311
 Alpha virt. eigenvalues --    0.99852   1.01205   1.02849   1.03573   1.04752
 Alpha virt. eigenvalues --    1.05760   1.06745   1.08037   1.08541   1.09635
 Alpha virt. eigenvalues --    1.10234   1.11401   1.13196   1.13606   1.14401
 Alpha virt. eigenvalues --    1.15321   1.17106   1.18345   1.20283   1.20632
 Alpha virt. eigenvalues --    1.21610   1.22700   1.23935   1.24222   1.26558
 Alpha virt. eigenvalues --    1.27348   1.29760   1.30248   1.32271   1.34123
 Alpha virt. eigenvalues --    1.37311   1.40083   1.40257   1.41566   1.42730
 Alpha virt. eigenvalues --    1.43614   1.45023   1.46465   1.47272   1.49367
 Alpha virt. eigenvalues --    1.49821   1.50472   1.51640   1.51868   1.52331
 Alpha virt. eigenvalues --    1.53712   1.54192   1.55430   1.56135   1.56449
 Alpha virt. eigenvalues --    1.56794   1.58490   1.59727   1.60387   1.60513
 Alpha virt. eigenvalues --    1.62128   1.63277   1.64921   1.66029   1.67546
 Alpha virt. eigenvalues --    1.68616   1.69176   1.70470   1.71325   1.74150
 Alpha virt. eigenvalues --    1.76824   1.77080   1.79016   1.79376   1.81042
 Alpha virt. eigenvalues --    1.82961   1.85923   1.88146   1.89704   1.90607
 Alpha virt. eigenvalues --    1.91369   1.94486   1.95007   1.97395   2.00542
 Alpha virt. eigenvalues --    2.00830   2.05448   2.07035   2.08350   2.08474
 Alpha virt. eigenvalues --    2.10899   2.13937   2.18609   2.20231   2.24591
 Alpha virt. eigenvalues --    2.27643   2.30685   2.37027   2.37402   2.38002
 Alpha virt. eigenvalues --    2.38279   2.39370   2.39931   2.40470   2.42149
 Alpha virt. eigenvalues --    2.42559   2.43755   2.45058   2.51015   2.54995
 Alpha virt. eigenvalues --    2.61150   2.64127   2.68330   2.71897   2.73264
 Alpha virt. eigenvalues --    2.76309   2.78780   2.81839   2.94680   2.99728
 Alpha virt. eigenvalues --    3.01878   3.09941   3.11448   3.15938   3.17849
 Alpha virt. eigenvalues --    3.24295   3.27129   3.35292   3.59304   3.74893
          Condensed to atoms (all electrons):
 Mulliken charges:
               1
     1  C    0.618788
     2  C   -0.108815
     3  S    0.374795
     4  S    0.296410
     5  C    1.039006
     6  C    1.130708
     7  C    0.787020
     8  N   -1.083344
     9  S    0.557521
    10  C   -1.128319
    11  N   -0.168110
    12  C   -1.099146
    13  N   -0.180654
    14  C   -0.852923
    15  N   -0.182936
 Sum of Mulliken charges =  -0.00000
 Mulliken charges with hydrogens summed into heavy atoms:
               1
     1  C    0.618788
     2  C   -0.108815
     3  S    0.374795
     4  S    0.296410
     5  C    1.039006
     6  C    1.130708
     7  C    0.787020
     8  N   -1.083344
     9  S    0.557521
    10  C   -1.128319
    11  N   -0.168110
    12  C   -1.099146
    13  N   -0.180654
    14  C   -0.852923
    15  N   -0.182936
 Electronic spatial extent (au):  <R**2>=           4013.7188
 Charge=             -0.0000 electrons
 Dipole moment (field-independent basis, Debye):
    X=             -1.1376    Y=              3.7114    Z=             -2.6234  Tot=              4.6852

 Test job not archived.
 1\1\GINC-CHIMERA-NODE21\SP\RM05\Gen\C8N4S3\CONNORNM\19-Jan-2019\0\\#T 
 M05/Gen test Massage SCF=(fermi,maxcyc=60)\\M05 opt\\0,1\C,0,-0.681022
 82,0.75534875,0.08225018\C,0,0.28595331,0.96573287,-0.94074657\S,0,-1.
 26982349,-0.81367945,0.6113824\S,0,1.08496095,-0.3372952,-1.83421899\C
 ,0,0.18312697,-1.80101141,0.37006805\C,0,1.11439141,-1.61034622,-0.601
 54782\C,0,-1.13846538,1.97235915,0.54586123\N,0,0.57053761,2.20580549,
 -1.25553492\S,0,-0.35544151,3.2412255,-0.33826454\C,0,0.28053196,-2.88
 67808,1.28805866\N,0,0.30387409,-3.77080549,2.04247798\C,0,2.22562329,
 -2.49375403,-0.73828215\N,0,3.13008146,-3.2044629,-0.90493882\C,0,-2.1
 072303,2.22373439,1.54759646\N,0,-2.9068462,2.44851,2.36073006\\Versio
 n=AS64L-G09RevD.01\HF=-1724.7615016\RMSD=5.129e-09\Dipole=-0.4475494,1
 .4601799,-1.0321273\Quadrupole=-1.3034383,-1.3835634,2.6870017,9.33045
 98,6.6167622,1.5978151\PG=C01 [X(C8N4S3)]\\@


 SCIENCE IS A VERY HUMAN FORM OF KNOWLEDGE.
 WE ARE ALWAYS AT THE BRINK OF THE KNOWN,
 WE ALWAYS FEEL FORWARD FOR WHAT IS HOPED.
 EVERY JUDGEMENT IN SCIENCE STANDS ON THE EDGE OF ERROR, AND IS PERSONAL.
 SCIENCE IS A TRIBUTE TO WHAT WE CAN KNOW ALTHOUGH WE ARE FALLIBLE.

                     -- J. BRONOWSKI
 Job cpu time:       0 days  1 hours 36 minutes 47.4 seconds.
 File lengths (MBytes):  RWF=     58 Int=      0 D2E=      0 Chk=      6 Scr=      1
 Normal termination of Gaussian 09 at Sat Jan 19 10:53:29 2019.
