 Entering Gaussian System, Link 0=/data/szalewicgrp/connornm/opt/Gaussian/g09-M05-par/g09/g09
 AtFile(1): blind-aug.gbs
 Initial command:
 /data/szalewicgrp/connornm/opt/Gaussian/g09-M05-par/g09/l1.exe "/scratch/local/Gau-45518.inp" -scrdir="/scratch/local/"
 Entering Link 1 = /data/szalewicgrp/connornm/opt/Gaussian/g09-M05-par/g09/l1.exe PID=     45519.
  
 Copyright (c) 1988,1990,1992,1993,1995,1998,2003,2009,2013,
            Gaussian, Inc.  All Rights Reserved.
  
 This is part of the Gaussian(R) 09 program.  It is based on
 the Gaussian(R) 03 system (copyright 2003, Gaussian, Inc.),
 the Gaussian(R) 98 system (copyright 1998, Gaussian, Inc.),
 the Gaussian(R) 94 system (copyright 1995, Gaussian, Inc.),
 the Gaussian 92(TM) system (copyright 1992, Gaussian, Inc.),
 the Gaussian 90(TM) system (copyright 1990, Gaussian, Inc.),
 the Gaussian 88(TM) system (copyright 1988, Gaussian, Inc.),
 the Gaussian 86(TM) system (copyright 1986, Carnegie Mellon
 University), and the Gaussian 82(TM) system (copyright 1983,
 Carnegie Mellon University). Gaussian is a federally registered
 trademark of Gaussian, Inc.
  
 This software contains proprietary and confidential information,
 including trade secrets, belonging to Gaussian, Inc.
  
 This software is provided under written license and may be
 used, copied, transmitted, or stored only in accord with that
 written license.
  
 The following legend is applicable only to US Government
 contracts under FAR:
  
                    RESTRICTED RIGHTS LEGEND
  
 Use, reproduction and disclosure by the US Government is
 subject to restrictions as set forth in subparagraphs (a)
 and (c) of the Commercial Computer Software - Restricted
 Rights clause in FAR 52.227-19.
  
 Gaussian, Inc.
 340 Quinnipiac St., Bldg. 40, Wallingford CT 06492
  
  
 ---------------------------------------------------------------
 Warning -- This program may not be used in any manner that
 competes with the business of Gaussian, Inc. or will provide
 assistance to any competitor of Gaussian, Inc.  The licensee
 of this program is prohibited from giving any competitor of
 Gaussian, Inc. access to this program.  By using this program,
 the user acknowledges that Gaussian, Inc. is engaged in the
 business of creating and licensing software in the field of
 computational chemistry and represents and warrants to the
 licensee that it is not a competitor of Gaussian, Inc. and that
 it will not use this program in any manner prohibited above.
 ---------------------------------------------------------------
  

 Cite this work as:
 Gaussian 09, Revision D.01,
 M. J. Frisch, G. W. Trucks, H. B. Schlegel, G. E. Scuseria, 
 M. A. Robb, J. R. Cheeseman, G. Scalmani, V. Barone, B. Mennucci, 
 G. A. Petersson, H. Nakatsuji, M. Caricato, X. Li, H. P. Hratchian, 
 A. F. Izmaylov, J. Bloino, G. Zheng, J. L. Sonnenberg, M. Hada, 
 M. Ehara, K. Toyota, R. Fukuda, J. Hasegawa, M. Ishida, T. Nakajima, 
 Y. Honda, O. Kitao, H. Nakai, T. Vreven, J. A. Montgomery, Jr., 
 J. E. Peralta, F. Ogliaro, M. Bearpark, J. J. Heyd, E. Brothers, 
 K. N. Kudin, V. N. Staroverov, T. Keith, R. Kobayashi, J. Normand, 
 K. Raghavachari, A. Rendell, J. C. Burant, S. S. Iyengar, J. Tomasi, 
 M. Cossi, N. Rega, J. M. Millam, M. Klene, J. E. Knox, J. B. Cross, 
 V. Bakken, C. Adamo, J. Jaramillo, R. Gomperts, R. E. Stratmann, 
 O. Yazyev, A. J. Austin, R. Cammi, C. Pomelli, J. W. Ochterski, 
 R. L. Martin, K. Morokuma, V. G. Zakrzewski, G. A. Voth, 
 P. Salvador, J. J. Dannenberg, S. Dapprich, A. D. Daniels, 
 O. Farkas, J. B. Foresman, J. V. Ortiz, J. Cioslowski, 
 and D. J. Fox, Gaussian, Inc., Wallingford CT, 2013.
 
 ******************************************
 Gaussian 09:  AS64L-G09RevD.01 24-Apr-2013
                19-Jan-2019 
 ******************************************
 %Chk=BLIND02099
 %Mem=1GB
 %NProcShared=48
 Will use up to   48 processors via shared memory.
 ---------------------------------------------
 #T M05/Gen test Massage SCF=(fermi,maxcyc=60)
 ---------------------------------------------
 -------
 M05 opt
 -------
 Symbolic Z-matrix:
 Charge =  0 Multiplicity = 1
 6                     0.75673   0.66655  -0.15551 
 6                     1.0984   -0.67464  -0.48763 
 16                   -0.38251   1.14069   1.09582 
 16                    0.39786  -2.10002   0.29475 
 6                    -1.53045  -0.20826   1.01414 
 6                    -1.21765  -1.4926    0.69745 
 6                     1.50879   1.53901  -0.91612 
 7                     2.01396  -0.85321  -1.40836 
 16                    2.57084   0.62413  -1.93586 
 6                    -2.8598    0.16631   1.36572 
 7                    -3.92262   0.51433   1.68273 
 6                    -2.21183  -2.51507   0.70675 
 7                    -2.98248  -3.38484   0.7298 
 6                     1.49673   2.9549   -0.89936 
 7                     1.50673   4.1172   -0.89242 
 6                    -0.27478  -0.03612   11.07266 
 6                     0.19944  -1.27846   10.5652 
 16                    0.25095   1.54846   10.5238 
 16                    1.38689  -1.4293    9.26066 
 6                     0.5714    1.20694   8.8136 
 6                     1.02311   0.02543   8.31597 
 6                    -1.15661  -0.26462   12.10971 
 7                    -0.25304  -2.37199   11.1285 
 16                   -1.2895   -1.97346   12.3686 
 6                     0.35113   2.33243   7.96752 
 7                     0.18079   3.2839    7.32185 
 6                     1.29478  -0.13046   6.92463 
 7                     1.5569   -0.29355   5.80409 
 6                    -1.84941   0.68451   12.89987 
 7                    -2.4189    1.44964   13.56421 
 
                    Distance matrix (angstroms):
                    1          2          3          4          5
     1  C    0.000000
     2  C    1.423315   0.000000
     3  S    1.757418   2.827694   0.000000
     4  S    2.825849   1.770477   3.428253   0.000000
     5  C    2.713774   3.063280   1.773167   2.795470   0.000000
     6  C    3.047557   2.727187   2.791121   1.772288   1.359281
     7  C    1.380327   2.291783   2.789903   3.992857   4.001979
     8  N    2.336642   1.310672   3.998700   2.658358   4.341342
     9  S    2.542129   2.439721   4.263822   4.137445   5.120151
    10  C    3.955208   4.450782   2.675676   4.110426   1.425163
    11  N    5.029770   5.597745   3.642685   5.237162   2.586817
    12  C    4.436049   3.971317   4.106384   2.674416   2.424897
    13  N    5.583831   5.047859   5.232040   3.642352   3.504263
    14  C    2.517432   3.674472   3.286888   5.309014   4.778168
    15  N    3.607292   4.826214   4.047461   6.425950   5.618639
    16  C   11.297327  11.659059  10.046580  10.994336  10.138053
    17  C   10.909959  11.105751   9.790813  10.305160   9.765268
    18  S   10.727600  11.265525   9.458034  10.861238   9.833267
    19  S    9.667164   9.781718   8.740725   9.045198   8.832153
    20  C    8.987288   9.504262   7.776788   9.139851   8.200740
    21  C    8.499888   8.831719   7.439770   8.321567   7.738994
    22  C   12.448436  12.804145  11.130130  12.057290  11.102004
    23  N   11.729509  11.817021  10.630636  10.856694  10.421795
    24  S   12.961869  13.140459  11.730135  12.191840  11.493374
    25  C    8.302006   9.005022   7.012750   8.861157   7.638383
    26  N    7.943126   8.803415   6.608640   8.855161   7.410181
    27  C    7.145150   7.434806   6.197108   6.974160   6.551475
    28  N    6.089246   6.319904   5.290194   5.912654   5.699351
    29  C   13.312976  13.775416  11.903591  13.103160  11.923477
    30  N   14.104204  14.640292  12.637364  14.021864  12.690237
                    6          7          8          9         10
     6  C    0.000000
     7  C    4.384939   0.000000
     8  N    3.909794   2.494036   0.000000
     9  S    5.076167   1.733444   1.664607   0.000000
    10  C    2.428007   5.116215   5.699860   6.371958   0.000000
    11  N    3.509330   6.107712   6.831389   7.434461   1.162408
    12  C    1.426163   5.736923   5.009263   6.301738   2.836178
    13  N    2.587713   6.864751   5.995430   7.349618   3.609722
    14  C    5.449573   1.416040   3.876636   2.767765   5.646781
    15  N    6.435818   2.578302   5.022796   3.797715   6.306769
    16  C   10.519280  12.222637  12.715411  13.332476  10.047292
    17  C    9.971276  11.894243  12.117723  12.865444   9.801876
    18  S   10.390476  11.508866  12.298481  12.707454   9.770246
    19  S    8.950766  10.601534  10.702946  11.444664   9.105525
    20  C    8.738424   9.780404  10.526802  10.949347   8.266018
    21  C    8.085002   9.367940   9.814091  10.385275   7.962596
    22  C   11.478293  13.417506  13.897371  14.558900  10.886686
    23  N   10.512405  12.785649  12.830385  13.697756  10.418744
    24  S   11.681269  14.023248  14.211693  15.042178  11.318476
    25  C    8.363355   8.993810  10.040930  10.291850   7.654145
    26  N    8.285725   8.524808   9.833246   9.924308   7.378358
    27  C    6.851674   8.019367   8.395133   8.983650   6.946232
    28  N    5.934101   6.965754   7.248548   7.859831   6.278368
    29  C   12.411201  14.243916  14.900184  15.480343  11.589916
    30  N   13.253419  15.003815  15.783883  16.304322  12.273732
                   11         12         13         14         15
    11  N    0.000000
    12  C    3.613393   0.000000
    13  N    4.122555   1.162293   0.000000
    14  C    6.480188   6.800997   7.931563   0.000000
    15  N    7.006418   7.769948   8.891861   1.162367   0.000000
    16  C   10.088632  10.832792  11.203589  12.466504  12.790111
    17  C    9.955083  10.224105  10.549717  12.289849  12.731815
    18  S    9.831210  10.906514  11.433070  11.576648  11.768839
    19  S    9.454822   9.343398   9.782191  11.066137  11.569922
    20  C    8.457259   9.344556   9.953010   9.912276  10.176013
    21  C    8.288496   8.649810   9.231726   9.681352  10.088162
    22  C   10.815703  11.670707  11.940350  13.661676  13.976731
    23  N   10.536571  10.605198  10.798558  13.270532  13.773489
    24  S   11.283182  11.710793  11.845669  14.425345  14.858319
    25  C    7.814662   9.098665   9.807379   8.962223   9.111493
    26  N    7.503879   9.116592   9.896139   8.332367   8.362224
    27  C    7.423913   7.526264   8.201332   8.412796   8.899093
    28  N    6.903869   6.717239   7.477330   7.449318   8.018759
    29  C   11.408391  12.611136  12.882317  14.379505  14.603915
    30  N   12.012720  13.456445  13.726320  15.059642  15.215798
                   16         17         18         19         20
    16  C    0.000000
    17  C    1.423315   0.000000
    18  S    1.757418   2.827694   0.000000
    19  S    2.825849   1.770477   3.428253   0.000000
    20  C    2.713774   3.063280   1.773167   2.795470   0.000000
    21  C    3.047557   2.727187   2.791121   1.772288   1.359281
    22  C    1.380327   2.291783   2.789903   3.992857   4.001979
    23  N    2.336642   1.310672   3.998700   2.658358   4.341342
    24  S    2.542129   2.439721   4.263822   4.137445   5.120151
    25  C    3.955208   4.450782   2.675676   4.110426   1.425163
    26  N    5.029770   5.597745   3.642685   5.237162   2.586817
    27  C    4.436049   3.971317   4.106384   2.674416   2.424897
    28  N    5.583831   5.047859   5.232040   3.642352   3.504263
    29  C    2.517432   3.674472   3.286888   5.309014   4.778168
    30  N    3.607292   4.826214   4.047461   6.425950   5.618639
                   21         22         23         24         25
    21  C    0.000000
    22  C    4.384939   0.000000
    23  N    3.909794   2.494036   0.000000
    24  S    5.076167   1.733444   1.664607   0.000000
    25  C    2.428007   5.116215   5.699860   6.371958   0.000000
    26  N    3.509330   6.107712   6.831389   7.434461   1.162408
    27  C    1.426163   5.736923   5.009263   6.301738   2.836178
    28  N    2.587713   6.864751   5.995430   7.349618   3.609722
    29  C    5.449573   1.416040   3.876636   2.767765   5.646781
    30  N    6.435818   2.578302   5.022796   3.797715   6.306769
                   26         27         28         29         30
    26  N    0.000000
    27  C    3.613393   0.000000
    28  N    4.122555   1.162293   0.000000
    29  C    6.480188   6.800997   7.931563   0.000000
    30  N    7.006418   7.769948   8.891861   1.162367   0.000000
 Symmetry turned off by external request.
 Framework group  C1[X(C16N8S6)]
 Deg. of freedom    84
 Rotational constants (GHZ):      0.1902805      0.0333762      0.0319103
   714 basis functions,  1518 primitive gaussians,   774 cartesian basis functions
   124 alpha electrons      124 beta electrons
       nuclear repulsion energy      3136.8768430047 Hartrees.
 IMHF & INEx in M05                  599485                  400514
 NAtoms=   30 NActive=   30 NUniq=   30 SFac= 1.00D+00 NAtFMM=   60 NAOKFM=F Big=F
 PrsmSu:  requested number of processors reduced to:  26 ShMem   1 Linda.
 ExpMin= 3.99D-02 ExpMax= 1.11D+05 ExpMxC= 1.07D+03 IAcc=3 IRadAn=         5 AccDes= 0.00D+00
 Harris functional with IExCor= 1009 and IRadAn=       5 diagonalized for initial guess.
 HarFok:  IExCor= 1009 AccDes= 0.00D+00 IRadAn=         5 IDoV= 1 UseB2=F ITyADJ=14
 ICtDFT=  3500011 ScaDFX=  1.000000  1.000000  1.000000  1.000000
 FoFCou: FMM=F IPFlag=           0 FMFlag=      100000 FMFlg1=           0
         NFxFlg=           0 DoJE=T BraDBF=F KetDBF=T FulRan=T
         wScrn=  0.000000 ICntrl=     500 IOpCl=  0 I1Cent=   200000004 NGrid=           0
         NMat0=    1 NMatS0=      1 NMatT0=    0 NMatD0=    1 NMtDS0=    0 NMtDT0=    0
 Symmetry not used in FoFCou.
 SCF Done:  E(RM05) =  -3449.52428028     A.U. after   17 cycles
            NFock= 17  Conv=0.54D-08     -V/T= 2.0061

 **********************************************************************

            Population analysis using the SCF density.

 **********************************************************************

 Alpha  occ. eigenvalues --  -90.56588 -90.55898 -90.53866 -90.53426 -90.53024
 Alpha  occ. eigenvalues --  -90.52635 -15.08787 -15.08094 -15.05536 -15.05420
 Alpha  occ. eigenvalues --  -15.05236 -15.04884 -15.04530 -15.04472 -10.90230
 Alpha  occ. eigenvalues --  -10.90129 -10.89917 -10.89408 -10.89300 -10.89204
 Alpha  occ. eigenvalues --  -10.88916 -10.88200 -10.87579 -10.86864 -10.85052
 Alpha  occ. eigenvalues --  -10.84861 -10.84604 -10.84423 -10.83929 -10.83870
 Alpha  occ. eigenvalues --   -8.57681  -8.56996  -8.55263  -8.54852  -8.54415
 Alpha  occ. eigenvalues --   -8.54059  -6.40219  -6.39868  -6.39557  -6.39534
 Alpha  occ. eigenvalues --   -6.39184  -6.38871  -6.37825  -6.37510  -6.37406
 Alpha  occ. eigenvalues --   -6.37096  -6.37049  -6.36977  -6.36662  -6.36635
 Alpha  occ. eigenvalues --   -6.36614  -6.36304  -6.36199  -6.35842  -1.20698
 Alpha  occ. eigenvalues --   -1.20001  -1.13266  -1.12436  -1.12252  -1.11729
 Alpha  occ. eigenvalues --   -1.11610  -1.10905  -1.07934  -1.07122  -1.03990
 Alpha  occ. eigenvalues --   -1.03253  -0.99043  -0.98291  -0.97624  -0.96839
 Alpha  occ. eigenvalues --   -0.88220  -0.87455  -0.84799  -0.84032  -0.82433
 Alpha  occ. eigenvalues --   -0.81700  -0.73978  -0.73167  -0.71513  -0.70764
 Alpha  occ. eigenvalues --   -0.68034  -0.67292  -0.64820  -0.64069  -0.59716
 Alpha  occ. eigenvalues --   -0.58981  -0.57511  -0.56725  -0.55656  -0.54867
 Alpha  occ. eigenvalues --   -0.53610  -0.52864  -0.52850  -0.52525  -0.52246
 Alpha  occ. eigenvalues --   -0.52135  -0.51729  -0.51466  -0.51187  -0.50545
 Alpha  occ. eigenvalues --   -0.50393  -0.49865  -0.49546  -0.48831  -0.48589
 Alpha  occ. eigenvalues --   -0.47762  -0.46974  -0.46477  -0.46274  -0.46258
 Alpha  occ. eigenvalues --   -0.45624  -0.45548  -0.45481  -0.44781  -0.43901
 Alpha  occ. eigenvalues --   -0.43341  -0.43193  -0.42568  -0.39741  -0.38987
 Alpha  occ. eigenvalues --   -0.37806  -0.37075  -0.33351  -0.32534
 Alpha virt. eigenvalues --   -0.09641  -0.08820  -0.08422  -0.07732  -0.02368
 Alpha virt. eigenvalues --   -0.01573  -0.01404  -0.00883  -0.00773  -0.00530
 Alpha virt. eigenvalues --   -0.00068  -0.00010   0.00088   0.00654   0.01088
 Alpha virt. eigenvalues --    0.01571   0.01704   0.02047   0.02131   0.02504
 Alpha virt. eigenvalues --    0.02627   0.02829   0.02951   0.03194   0.03431
 Alpha virt. eigenvalues --    0.03596   0.03794   0.03962   0.04261   0.04615
 Alpha virt. eigenvalues --    0.04925   0.05279   0.05456   0.05674   0.05949
 Alpha virt. eigenvalues --    0.06227   0.06432   0.06551   0.06821   0.07305
 Alpha virt. eigenvalues --    0.07424   0.07517   0.07736   0.07947   0.08086
 Alpha virt. eigenvalues --    0.08249   0.08372   0.08744   0.08929   0.09322
 Alpha virt. eigenvalues --    0.09415   0.09872   0.10015   0.10326   0.10509
 Alpha virt. eigenvalues --    0.10661   0.10828   0.10992   0.11139   0.11252
 Alpha virt. eigenvalues --    0.11609   0.11971   0.12097   0.12225   0.12530
 Alpha virt. eigenvalues --    0.12702   0.12979   0.13275   0.13393   0.13517
 Alpha virt. eigenvalues --    0.13861   0.14223   0.14316   0.14426   0.14845
 Alpha virt. eigenvalues --    0.15066   0.15359   0.15414   0.15741   0.15785
 Alpha virt. eigenvalues --    0.16102   0.16430   0.16493   0.16613   0.16978
 Alpha virt. eigenvalues --    0.17048   0.17183   0.17426   0.17617   0.17663
 Alpha virt. eigenvalues --    0.17873   0.18086   0.18381   0.18579   0.18950
 Alpha virt. eigenvalues --    0.19119   0.19450   0.19809   0.20004   0.20101
 Alpha virt. eigenvalues --    0.20311   0.20414   0.20634   0.20954   0.21255
 Alpha virt. eigenvalues --    0.21451   0.21587   0.21769   0.21842   0.22046
 Alpha virt. eigenvalues --    0.22403   0.22530   0.22598   0.22860   0.23058
 Alpha virt. eigenvalues --    0.23182   0.23488   0.23640   0.23952   0.24047
 Alpha virt. eigenvalues --    0.24486   0.24521   0.24674   0.24923   0.25082
 Alpha virt. eigenvalues --    0.25223   0.25627   0.25736   0.25952   0.26124
 Alpha virt. eigenvalues --    0.26146   0.26363   0.26517   0.26790   0.26994
 Alpha virt. eigenvalues --    0.27337   0.27642   0.27951   0.28378   0.28523
 Alpha virt. eigenvalues --    0.28854   0.28990   0.29405   0.29776   0.29817
 Alpha virt. eigenvalues --    0.30322   0.30616   0.30873   0.31047   0.31423
 Alpha virt. eigenvalues --    0.31959   0.32611   0.33113   0.33299   0.34010
 Alpha virt. eigenvalues --    0.34433   0.34743   0.34863   0.35041   0.35320
 Alpha virt. eigenvalues --    0.35503   0.35975   0.36027   0.36491   0.36768
 Alpha virt. eigenvalues --    0.37100   0.37578   0.37828   0.38083   0.38409
 Alpha virt. eigenvalues --    0.39243   0.39644   0.39744   0.40703   0.40917
 Alpha virt. eigenvalues --    0.41284   0.41830   0.42142   0.42455   0.42634
 Alpha virt. eigenvalues --    0.43269   0.43292   0.43703   0.44113   0.44596
 Alpha virt. eigenvalues --    0.45133   0.45817   0.46059   0.46475   0.46776
 Alpha virt. eigenvalues --    0.47798   0.48069   0.48761   0.49844   0.49981
 Alpha virt. eigenvalues --    0.50536   0.50710   0.50863   0.51368   0.51537
 Alpha virt. eigenvalues --    0.51684   0.52144   0.52281   0.52872   0.53681
 Alpha virt. eigenvalues --    0.54257   0.54341   0.54676   0.54858   0.55007
 Alpha virt. eigenvalues --    0.55341   0.55407   0.55589   0.55749   0.56304
 Alpha virt. eigenvalues --    0.56437   0.56586   0.56834   0.57191   0.57685
 Alpha virt. eigenvalues --    0.58088   0.58338   0.58665   0.58922   0.59125
 Alpha virt. eigenvalues --    0.59610   0.59911   0.60123   0.60503   0.60774
 Alpha virt. eigenvalues --    0.60977   0.61244   0.61545   0.61923   0.62100
 Alpha virt. eigenvalues --    0.62444   0.62724   0.63430   0.63645   0.64393
 Alpha virt. eigenvalues --    0.64578   0.64716   0.64981   0.65265   0.65551
 Alpha virt. eigenvalues --    0.65850   0.66613   0.67238   0.67504   0.67744
 Alpha virt. eigenvalues --    0.68120   0.68321   0.68621   0.69679   0.69867
 Alpha virt. eigenvalues --    0.70033   0.70404   0.70506   0.70964   0.71178
 Alpha virt. eigenvalues --    0.71437   0.72393   0.73150   0.73443   0.73898
 Alpha virt. eigenvalues --    0.74139   0.74772   0.75141   0.75398   0.75503
 Alpha virt. eigenvalues --    0.76207   0.76507   0.76873   0.76977   0.77553
 Alpha virt. eigenvalues --    0.77723   0.77909   0.78244   0.78352   0.78554
 Alpha virt. eigenvalues --    0.78951   0.79302   0.79518   0.79796   0.80023
 Alpha virt. eigenvalues --    0.80309   0.80345   0.80955   0.81097   0.81595
 Alpha virt. eigenvalues --    0.81830   0.82449   0.82890   0.83292   0.83618
 Alpha virt. eigenvalues --    0.84007   0.84422   0.84747   0.85468   0.85640
 Alpha virt. eigenvalues --    0.85777   0.86404   0.86584   0.86891   0.87065
 Alpha virt. eigenvalues --    0.87451   0.87780   0.88342   0.88445   0.88790
 Alpha virt. eigenvalues --    0.89070   0.89329   0.89423   0.89760   0.90242
 Alpha virt. eigenvalues --    0.90383   0.90554   0.90733   0.91135   0.91486
 Alpha virt. eigenvalues --    0.91888   0.92095   0.92432   0.92692   0.93288
 Alpha virt. eigenvalues --    0.93720   0.93868   0.94335   0.94993   0.95379
 Alpha virt. eigenvalues --    0.95686   0.95867   0.96454   0.96920   0.97483
 Alpha virt. eigenvalues --    0.98032   0.98893   0.99157   0.99595   1.00063
 Alpha virt. eigenvalues --    1.00410   1.01180   1.01683   1.02742   1.03157
 Alpha virt. eigenvalues --    1.03746   1.04194   1.04661   1.05035   1.05720
 Alpha virt. eigenvalues --    1.05799   1.06458   1.06888   1.07718   1.07922
 Alpha virt. eigenvalues --    1.08539   1.08828   1.09475   1.09721   1.10143
 Alpha virt. eigenvalues --    1.10381   1.11406   1.11556   1.12180   1.13340
 Alpha virt. eigenvalues --    1.13668   1.14145   1.14338   1.14704   1.15058
 Alpha virt. eigenvalues --    1.15209   1.15942   1.17083   1.17853   1.18278
 Alpha virt. eigenvalues --    1.18988   1.20188   1.20538   1.20859   1.21504
 Alpha virt. eigenvalues --    1.21570   1.22417   1.22679   1.23380   1.24028
 Alpha virt. eigenvalues --    1.24277   1.24985   1.25089   1.26588   1.27233
 Alpha virt. eigenvalues --    1.27385   1.28032   1.29636   1.30283   1.30586
 Alpha virt. eigenvalues --    1.31109   1.32117   1.32933   1.33962   1.34682
 Alpha virt. eigenvalues --    1.37278   1.37923   1.39995   1.40164   1.40819
 Alpha virt. eigenvalues --    1.40915   1.41582   1.42148   1.42613   1.43415
 Alpha virt. eigenvalues --    1.43648   1.44304   1.44980   1.45638   1.46546
 Alpha virt. eigenvalues --    1.47187   1.47209   1.48051   1.49309   1.49953
 Alpha virt. eigenvalues --    1.50165   1.50455   1.50748   1.51252   1.51567
 Alpha virt. eigenvalues --    1.51749   1.52293   1.52383   1.52649   1.52992
 Alpha virt. eigenvalues --    1.53627   1.54205   1.54422   1.55236   1.55318
 Alpha virt. eigenvalues --    1.56154   1.56389   1.56967   1.57121   1.57372
 Alpha virt. eigenvalues --    1.57604   1.57979   1.59004   1.59496   1.59871
 Alpha virt. eigenvalues --    1.60420   1.60566   1.60814   1.61224   1.61491
 Alpha virt. eigenvalues --    1.62414   1.62749   1.63210   1.64035   1.65211
 Alpha virt. eigenvalues --    1.65752   1.65981   1.66699   1.67617   1.68427
 Alpha virt. eigenvalues --    1.68939   1.69235   1.69345   1.69936   1.70637
 Alpha virt. eigenvalues --    1.71174   1.71770   1.72076   1.74162   1.74808
 Alpha virt. eigenvalues --    1.77040   1.77349   1.77826   1.78481   1.78928
 Alpha virt. eigenvalues --    1.79335   1.79726   1.80166   1.81053   1.81810
 Alpha virt. eigenvalues --    1.82870   1.83601   1.85812   1.86813   1.88353
 Alpha virt. eigenvalues --    1.89059   1.89667   1.90553   1.90726   1.91338
 Alpha virt. eigenvalues --    1.92035   1.92127   1.94492   1.94952   1.95172
 Alpha virt. eigenvalues --    1.95669   1.97745   1.98058   2.00604   2.01168
 Alpha virt. eigenvalues --    2.01706   2.02101   2.05355   2.06072   2.07184
 Alpha virt. eigenvalues --    2.07776   2.08266   2.08695   2.09047   2.09580
 Alpha virt. eigenvalues --    2.10778   2.11580   2.13814   2.14605   2.18837
 Alpha virt. eigenvalues --    2.19416   2.20190   2.21129   2.24835   2.25870
 Alpha virt. eigenvalues --    2.27652   2.28936   2.30544   2.31563   2.37069
 Alpha virt. eigenvalues --    2.37359   2.37710   2.37884   2.38066   2.38322
 Alpha virt. eigenvalues --    2.38595   2.38826   2.39329   2.39796   2.39953
 Alpha virt. eigenvalues --    2.40435   2.40651   2.41019   2.42056   2.42577
 Alpha virt. eigenvalues --    2.42915   2.43326   2.43795   2.44437   2.45009
 Alpha virt. eigenvalues --    2.45782   2.51279   2.52496   2.54959   2.55596
 Alpha virt. eigenvalues --    2.61870   2.62229   2.64428   2.66024   2.68551
 Alpha virt. eigenvalues --    2.69082   2.71760   2.72596   2.73188   2.73829
 Alpha virt. eigenvalues --    2.76289   2.76878   2.78643   2.79444   2.81840
 Alpha virt. eigenvalues --    2.82489   2.94575   2.95350   2.99696   3.00370
 Alpha virt. eigenvalues --    3.01804   3.02616   3.09888   3.11115   3.11865
 Alpha virt. eigenvalues --    3.12401   3.15974   3.16651   3.17752   3.18973
 Alpha virt. eigenvalues --    3.25034   3.27153   3.28777   3.29567   3.35609
 Alpha virt. eigenvalues --    3.36078   3.59899   3.61930   3.75221   3.75951
          Condensed to atoms (all electrons):
 Mulliken charges:
               1
     1  C    0.657258
     2  C   -0.177692
     3  S    0.538125
     4  S    0.321393
     5  C    1.252062
     6  C    1.165029
     7  C    0.777871
     8  N   -1.095731
     9  S    0.563931
    10  C   -1.350337
    11  N   -0.134225
    12  C   -1.253713
    13  N   -0.154266
    14  C   -0.927598
    15  N   -0.177818
    16  C    0.591116
    17  C   -0.051791
    18  S    0.358958
    19  S    0.283398
    20  C    1.066435
    21  C    1.281443
    22  C    0.807148
    23  N   -1.092832
    24  S    0.556427
    25  C   -1.148417
    26  N   -0.159014
    27  C   -1.352518
    28  N   -0.113217
    29  C   -0.850620
    30  N   -0.180808
 Sum of Mulliken charges =  -0.00000
 Mulliken charges with hydrogens summed into heavy atoms:
               1
     1  C    0.657258
     2  C   -0.177692
     3  S    0.538125
     4  S    0.321393
     5  C    1.252062
     6  C    1.165029
     7  C    0.777871
     8  N   -1.095731
     9  S    0.563931
    10  C   -1.350337
    11  N   -0.134225
    12  C   -1.253713
    13  N   -0.154266
    14  C   -0.927598
    15  N   -0.177818
    16  C    0.591116
    17  C   -0.051791
    18  S    0.358958
    19  S    0.283398
    20  C    1.066435
    21  C    1.281443
    22  C    0.807148
    23  N   -1.092832
    24  S    0.556427
    25  C   -1.148417
    26  N   -0.159014
    27  C   -1.352518
    28  N   -0.113217
    29  C   -0.850620
    30  N   -0.180808
 Electronic spatial extent (au):  <R**2>=          53057.2671
 Charge=             -0.0000 electrons
 Dipole moment (field-independent basis, Debye):
    X=              5.1061    Y=             -3.3683    Z=              2.9512  Tot=              6.7917

 Test job not archived.
 1\1\GINC-CHIMERA-NODE56\SP\RM05\Gen\C16N8S6\CONNORNM\19-Jan-2019\0\\#T
  M05/Gen test Massage SCF=(fermi,maxcyc=60)\\M05 opt\\0,1\C,0,0.756730
 45,0.66654594,-0.15551349\C,0,1.09840204,-0.67464184,-0.48763175\S,0,-
 0.38250785,1.14069202,1.09582109\S,0,0.39786389,-2.10002206,0.29475297
 \C,0,-1.53044768,-0.20826488,1.01414179\C,0,-1.21764536,-1.49259604,0.
 69745233\C,0,1.50879171,1.53900896,-0.91611546\N,0,2.01395697,-0.85321
 273,-1.40835518\S,0,2.57084239,0.62412911,-1.93585551\C,0,-2.85980062,
 0.16631032,1.36571518\N,0,-3.92261587,0.51433175,1.68272915\C,0,-2.211
 82813,-2.5150715,0.70675344\N,0,-2.98247886,-3.38483732,0.72979643\C,0
 ,1.49672626,2.95489818,-0.89936436\N,0,1.50673358,4.11720087,-0.892419
 97\C,0,-0.27477679,-0.03611518,11.07265896\C,0,0.19944383,-1.27846054,
 10.56519521\S,0,0.25095256,1.54846138,10.52380341\S,0,1.38689289,-1.42
 929551,9.26066392\C,0,0.57140386,1.20694453,8.81359895\C,0,1.02310911,
 0.0254301,8.31597454\C,0,-1.1566055,-0.26461581,12.10970708\N,0,-0.253
 03666,-2.37198886,11.1285044\S,0,-1.28950013,-1.97345777,12.36859848\C
 ,0,0.35113142,2.33242872,7.96751676\N,0,0.18079441,3.28389964,7.321853
 23\C,0,1.29477666,-0.13046201,6.92463118\N,0,1.55690355,-0.29355342,5.
 80408809\C,0,-1.84940937,0.68450688,12.89986993\N,0,-2.41890313,1.4496
 414,13.56420565\\Version=AS64L-G09RevD.01\HF=-3449.5242803\RMSD=5.373e
 -09\Dipole=2.0089103,-1.3251932,1.1610804\Quadrupole=-13.831299,-24.91
 83289,38.7496279,-0.9974813,13.6946427,-23.4499522\PG=C01 [X(C16N8S6)]
 \\@


 IT WAS A GAME, A VERY INTERESTING GAME ONE COULD
 PLAY.  WHENEVER ONE SOLVED ONE OF THE LITTLE PROBLEMS,
 ONE COULD WRITE A PAPER ABOUT IT.  IT WAS VERY EASY IN
 THOSE DAYS FOR ANY SECOND-RATE PHYSICIST TO DO
 FIRST-RATE WORK.  THERE HAS NOT BEEN SUCH A GLORIOUS
 TIME SINCE.  IT IS VERY DIFFICULT NOW FOR A FIRST-RATE
 PHYSICIST TO DO SECOND-RATE WORK.
     P.A.M. DIRAC, ON THE EARLY DAYS OF QUANTUM MECHANICS
                   DIRECTIONS IN PHYSICS, 1978, P. 7
 Job cpu time:       0 days  7 hours 43 minutes 17.8 seconds.
 File lengths (MBytes):  RWF=    225 Int=      0 D2E=      0 Chk=     19 Scr=      1
 Normal termination of Gaussian 09 at Sat Jan 19 11:14:50 2019.
