 Entering Gaussian System, Link 0=/data/szalewicgrp/connornm/opt/Gaussian/g09-M05-par/g09/g09
 AtFile(1): blind-aug.gbs
 Initial command:
 /data/szalewicgrp/connornm/opt/Gaussian/g09-M05-par/g09/l1.exe "/scratch/local/Gau-24698.inp" -scrdir="/scratch/local/"
 Entering Link 1 = /data/szalewicgrp/connornm/opt/Gaussian/g09-M05-par/g09/l1.exe PID=     24699.
  
 Copyright (c) 1988,1990,1992,1993,1995,1998,2003,2009,2013,
            Gaussian, Inc.  All Rights Reserved.
  
 This is part of the Gaussian(R) 09 program.  It is based on
 the Gaussian(R) 03 system (copyright 2003, Gaussian, Inc.),
 the Gaussian(R) 98 system (copyright 1998, Gaussian, Inc.),
 the Gaussian(R) 94 system (copyright 1995, Gaussian, Inc.),
 the Gaussian 92(TM) system (copyright 1992, Gaussian, Inc.),
 the Gaussian 90(TM) system (copyright 1990, Gaussian, Inc.),
 the Gaussian 88(TM) system (copyright 1988, Gaussian, Inc.),
 the Gaussian 86(TM) system (copyright 1986, Carnegie Mellon
 University), and the Gaussian 82(TM) system (copyright 1983,
 Carnegie Mellon University). Gaussian is a federally registered
 trademark of Gaussian, Inc.
  
 This software contains proprietary and confidential information,
 including trade secrets, belonging to Gaussian, Inc.
  
 This software is provided under written license and may be
 used, copied, transmitted, or stored only in accord with that
 written license.
  
 The following legend is applicable only to US Government
 contracts under FAR:
  
                    RESTRICTED RIGHTS LEGEND
  
 Use, reproduction and disclosure by the US Government is
 subject to restrictions as set forth in subparagraphs (a)
 and (c) of the Commercial Computer Software - Restricted
 Rights clause in FAR 52.227-19.
  
 Gaussian, Inc.
 340 Quinnipiac St., Bldg. 40, Wallingford CT 06492
  
  
 ---------------------------------------------------------------
 Warning -- This program may not be used in any manner that
 competes with the business of Gaussian, Inc. or will provide
 assistance to any competitor of Gaussian, Inc.  The licensee
 of this program is prohibited from giving any competitor of
 Gaussian, Inc. access to this program.  By using this program,
 the user acknowledges that Gaussian, Inc. is engaged in the
 business of creating and licensing software in the field of
 computational chemistry and represents and warrants to the
 licensee that it is not a competitor of Gaussian, Inc. and that
 it will not use this program in any manner prohibited above.
 ---------------------------------------------------------------
  

 Cite this work as:
 Gaussian 09, Revision D.01,
 M. J. Frisch, G. W. Trucks, H. B. Schlegel, G. E. Scuseria, 
 M. A. Robb, J. R. Cheeseman, G. Scalmani, V. Barone, B. Mennucci, 
 G. A. Petersson, H. Nakatsuji, M. Caricato, X. Li, H. P. Hratchian, 
 A. F. Izmaylov, J. Bloino, G. Zheng, J. L. Sonnenberg, M. Hada, 
 M. Ehara, K. Toyota, R. Fukuda, J. Hasegawa, M. Ishida, T. Nakajima, 
 Y. Honda, O. Kitao, H. Nakai, T. Vreven, J. A. Montgomery, Jr., 
 J. E. Peralta, F. Ogliaro, M. Bearpark, J. J. Heyd, E. Brothers, 
 K. N. Kudin, V. N. Staroverov, T. Keith, R. Kobayashi, J. Normand, 
 K. Raghavachari, A. Rendell, J. C. Burant, S. S. Iyengar, J. Tomasi, 
 M. Cossi, N. Rega, J. M. Millam, M. Klene, J. E. Knox, J. B. Cross, 
 V. Bakken, C. Adamo, J. Jaramillo, R. Gomperts, R. E. Stratmann, 
 O. Yazyev, A. J. Austin, R. Cammi, C. Pomelli, J. W. Ochterski, 
 R. L. Martin, K. Morokuma, V. G. Zakrzewski, G. A. Voth, 
 P. Salvador, J. J. Dannenberg, S. Dapprich, A. D. Daniels, 
 O. Farkas, J. B. Foresman, J. V. Ortiz, J. Cioslowski, 
 and D. J. Fox, Gaussian, Inc., Wallingford CT, 2013.
 
 ******************************************
 Gaussian 09:  AS64L-G09RevD.01 24-Apr-2013
                19-Jan-2019 
 ******************************************
 %Chk=BLIND00594_mB
 %Mem=1GB
 %NProcShared=48
 Will use up to   48 processors via shared memory.
 ---------------------------------------------
 #T M05/Gen test Massage SCF=(fermi,maxcyc=60)
 ---------------------------------------------
 -------
 M05 opt
 -------
 Symbolic Z-matrix:
 Charge =  0 Multiplicity = 1
 6                     0.77914   0.65787   5.73865 
 6                     0.78741  -0.17727   4.58614 
 16                   -0.66177   1.19272   6.59084 
 16                   -0.66951  -0.84631   3.8349 
 6                    -1.71967  -0.20908   6.34602 
 6                    -1.72123  -1.01494   5.25139 
 6                     2.0696    1.04202   6.04271 
 7                     1.94891  -0.4334    4.03552 
 16                    3.14989   0.36141   4.87029 
 6                    -2.64098  -0.40816   7.41497 
 7                    -3.38821  -0.51558   8.29888 
 6                    -2.64887  -2.09165   5.1325 
 7                    -3.40486  -2.96125   4.98016 
 6                     2.51303   1.87685   7.09703 
 7                     2.89381   2.56743   7.95096 
 
                    Distance matrix (angstroms):
                    1          2          3          4          5
     1  C    0.000000
     2  C    1.423315   0.000000
     3  S    1.757418   2.827694   0.000000
     4  S    2.825849   1.770477   3.428253   0.000000
     5  C    2.713774   3.063280   1.773167   2.795470   0.000000
     6  C    3.047557   2.727187   2.791121   1.772288   1.359281
     7  C    1.380327   2.291783   2.789903   3.992857   4.001979
     8  N    2.336642   1.310672   3.998700   2.658358   4.341342
     9  S    2.542129   2.439721   4.263822   4.137445   5.120151
    10  C    3.955208   4.450782   2.675676   4.110426   1.425163
    11  N    5.029770   5.597745   3.642685   5.237162   2.586817
    12  C    4.436049   3.971317   4.106384   2.674416   2.424897
    13  N    5.583831   5.047859   5.232040   3.642352   3.504263
    14  C    2.517432   3.674472   3.286888   5.309014   4.778168
    15  N    3.607292   4.826214   4.047461   6.425950   5.618639
                    6          7          8          9         10
     6  C    0.000000
     7  C    4.384939   0.000000
     8  N    3.909794   2.494036   0.000000
     9  S    5.076167   1.733444   1.664607   0.000000
    10  C    2.428007   5.116215   5.699860   6.371958   0.000000
    11  N    3.509330   6.107712   6.831389   7.434461   1.162408
    12  C    1.426163   5.736923   5.009263   6.301738   2.836178
    13  N    2.587713   6.864751   5.995430   7.349618   3.609722
    14  C    5.449573   1.416040   3.876636   2.767765   5.646781
    15  N    6.435818   2.578302   5.022796   3.797715   6.306769
                   11         12         13         14         15
    11  N    0.000000
    12  C    3.613393   0.000000
    13  N    4.122555   1.162293   0.000000
    14  C    6.480188   6.800997   7.931563   0.000000
    15  N    7.006418   7.769948   8.891861   1.162367   0.000000
 Symmetry turned off by external request.
 Framework group  C1[X(C8N4S3)]
 Deg. of freedom    39
 Rotational constants (GHZ):      0.7722167      0.3388923      0.2463240
   357 basis functions,   759 primitive gaussians,   387 cartesian basis functions
    62 alpha electrons       62 beta electrons
       nuclear repulsion energy      1166.1400400655 Hartrees.
 IMHF & INEx in M05                  599485                  400514
 NAtoms=   15 NActive=   15 NUniq=   15 SFac= 1.00D+00 NAtFMM=   60 NAOKFM=F Big=F
 PrsmSu:  requested number of processors reduced to:  34 ShMem   1 Linda.
 ExpMin= 3.99D-02 ExpMax= 1.11D+05 ExpMxC= 1.07D+03 IAcc=3 IRadAn=         5 AccDes= 0.00D+00
 Harris functional with IExCor= 1009 and IRadAn=       5 diagonalized for initial guess.
 HarFok:  IExCor= 1009 AccDes= 0.00D+00 IRadAn=         5 IDoV= 1 UseB2=F ITyADJ=14
 ICtDFT=  3500011 ScaDFX=  1.000000  1.000000  1.000000  1.000000
 FoFCou: FMM=F IPFlag=           0 FMFlag=      100000 FMFlg1=           0
         NFxFlg=           0 DoJE=T BraDBF=F KetDBF=T FulRan=T
         wScrn=  0.000000 ICntrl=     500 IOpCl=  0 I1Cent=   200000004 NGrid=           0
         NMat0=    1 NMatS0=      1 NMatT0=    0 NMatD0=    1 NMtDS0=    0 NMtDT0=    0
 Symmetry not used in FoFCou.
 SCF Done:  E(RM05) =  -1724.76148252     A.U. after   17 cycles
            NFock= 17  Conv=0.51D-08     -V/T= 2.0061

 **********************************************************************

            Population analysis using the SCF density.

 **********************************************************************

 Alpha  occ. eigenvalues --  -90.56431 -90.53635 -90.53181 -15.08622 -15.05417
 Alpha  occ. eigenvalues --  -15.04968 -15.04934 -10.89944 -10.89826 -10.89736
 Alpha  occ. eigenvalues --  -10.88752 -10.87414 -10.84947 -10.84331 -10.84311
 Alpha  occ. eigenvalues --   -8.57527  -8.55035  -8.54609  -6.40064  -6.39713
 Alpha  occ. eigenvalues --   -6.39402  -6.37597  -6.37282  -6.37162  -6.36852
 Alpha  occ. eigenvalues --   -6.36821  -6.36392  -1.20533  -1.12895  -1.12139
 Alpha  occ. eigenvalues --   -1.11337  -1.07643  -1.03801  -0.98824  -0.97396
 Alpha  occ. eigenvalues --   -0.88003  -0.84555  -0.82236  -0.73687  -0.71296
 Alpha  occ. eigenvalues --   -0.67838  -0.64612  -0.59530  -0.57258  -0.55386
 Alpha  occ. eigenvalues --   -0.53385  -0.52648  -0.52243  -0.51890  -0.50883
 Alpha  occ. eigenvalues --   -0.50387  -0.49357  -0.48215  -0.46805  -0.46074
 Alpha  occ. eigenvalues --   -0.45933  -0.45296  -0.43720  -0.43113  -0.39488
 Alpha  occ. eigenvalues --   -0.37628  -0.33119
 Alpha virt. eigenvalues --   -0.09329  -0.08268  -0.02099  -0.01263  -0.00505
 Alpha virt. eigenvalues --   -0.00362   0.00153   0.01255   0.02017   0.02228
 Alpha virt. eigenvalues --    0.02390   0.02956   0.03185   0.04003   0.04274
 Alpha virt. eigenvalues --    0.04485   0.05427   0.06004   0.06302   0.07066
 Alpha virt. eigenvalues --    0.07265   0.07526   0.07707   0.08290   0.08493
 Alpha virt. eigenvalues --    0.09373   0.10094   0.10389   0.10524   0.10809
 Alpha virt. eigenvalues --    0.11287   0.11392   0.11979   0.12527   0.13226
 Alpha virt. eigenvalues --    0.13487   0.13934   0.14455   0.15076   0.15190
 Alpha virt. eigenvalues --    0.15900   0.16271   0.16678   0.16811   0.17189
 Alpha virt. eigenvalues --    0.17358   0.17843   0.18611   0.19045   0.19565
 Alpha virt. eigenvalues --    0.19860   0.20235   0.20680   0.20935   0.21267
 Alpha virt. eigenvalues --    0.21879   0.22206   0.22583   0.22824   0.23612
 Alpha virt. eigenvalues --    0.23749   0.24110   0.24367   0.24703   0.25257
 Alpha virt. eigenvalues --    0.25694   0.25850   0.26225   0.26619   0.26746
 Alpha virt. eigenvalues --    0.27068   0.28337   0.29192   0.29661   0.30364
 Alpha virt. eigenvalues --    0.30711   0.32419   0.33452   0.34155   0.34715
 Alpha virt. eigenvalues --    0.34949   0.35471   0.36122   0.36937   0.37592
 Alpha virt. eigenvalues --    0.38150   0.39579   0.40728   0.41170   0.42050
 Alpha virt. eigenvalues --    0.42120   0.43485   0.44131   0.45735   0.45985
 Alpha virt. eigenvalues --    0.46960   0.48547   0.49573   0.50229   0.50593
 Alpha virt. eigenvalues --    0.51525   0.51854   0.53527   0.54163   0.54421
 Alpha virt. eigenvalues --    0.54701   0.55466   0.55732   0.55837   0.56453
 Alpha virt. eigenvalues --    0.57770   0.58139   0.58555   0.59216   0.60309
 Alpha virt. eigenvalues --    0.60551   0.61101   0.61589   0.62105   0.62710
 Alpha virt. eigenvalues --    0.63715   0.64716   0.64952   0.66005   0.66557
 Alpha virt. eigenvalues --    0.67690   0.68189   0.68805   0.70106   0.70414
 Alpha virt. eigenvalues --    0.71046   0.72864   0.73466   0.73855   0.75368
 Alpha virt. eigenvalues --    0.75562   0.76456   0.77063   0.77552   0.77842
 Alpha virt. eigenvalues --    0.78248   0.79255   0.79763   0.79878   0.81108
 Alpha virt. eigenvalues --    0.81537   0.82549   0.83276   0.83956   0.84871
 Alpha virt. eigenvalues --    0.85699   0.85940   0.87125   0.87247   0.88402
 Alpha virt. eigenvalues --    0.88458   0.89345   0.89665   0.89829   0.90730
 Alpha virt. eigenvalues --    0.91171   0.91721   0.92830   0.93720   0.94369
 Alpha virt. eigenvalues --    0.95433   0.95565   0.97328   0.98746   0.99311
 Alpha virt. eigenvalues --    0.99848   1.01205   1.02850   1.03575   1.04749
 Alpha virt. eigenvalues --    1.05756   1.06746   1.08039   1.08543   1.09637
 Alpha virt. eigenvalues --    1.10235   1.11399   1.13195   1.13606   1.14403
 Alpha virt. eigenvalues --    1.15321   1.17100   1.18345   1.20284   1.20630
 Alpha virt. eigenvalues --    1.21608   1.22700   1.23934   1.24218   1.26555
 Alpha virt. eigenvalues --    1.27347   1.29757   1.30247   1.32271   1.34120
 Alpha virt. eigenvalues --    1.37312   1.40084   1.40259   1.41568   1.42729
 Alpha virt. eigenvalues --    1.43617   1.45025   1.46465   1.47272   1.49371
 Alpha virt. eigenvalues --    1.49825   1.50472   1.51642   1.51867   1.52331
 Alpha virt. eigenvalues --    1.53714   1.54191   1.55431   1.56137   1.56449
 Alpha virt. eigenvalues --    1.56790   1.58486   1.59726   1.60387   1.60515
 Alpha virt. eigenvalues --    1.62128   1.63279   1.64917   1.66028   1.67545
 Alpha virt. eigenvalues --    1.68614   1.69173   1.70470   1.71322   1.74148
 Alpha virt. eigenvalues --    1.76825   1.77078   1.79014   1.79377   1.81038
 Alpha virt. eigenvalues --    1.82962   1.85920   1.88153   1.89702   1.90609
 Alpha virt. eigenvalues --    1.91370   1.94485   1.95004   1.97394   2.00538
 Alpha virt. eigenvalues --    2.00830   2.05448   2.07034   2.08352   2.08475
 Alpha virt. eigenvalues --    2.10897   2.13937   2.18608   2.20233   2.24594
 Alpha virt. eigenvalues --    2.27650   2.30686   2.37027   2.37401   2.38003
 Alpha virt. eigenvalues --    2.38279   2.39370   2.39931   2.40470   2.42150
 Alpha virt. eigenvalues --    2.42561   2.43756   2.45057   2.51019   2.54996
 Alpha virt. eigenvalues --    2.61161   2.64121   2.68330   2.71899   2.73263
 Alpha virt. eigenvalues --    2.76308   2.78779   2.81842   2.94680   2.99729
 Alpha virt. eigenvalues --    3.01877   3.09944   3.11451   3.15940   3.17850
 Alpha virt. eigenvalues --    3.24294   3.27129   3.35295   3.59303   3.74894
          Condensed to atoms (all electrons):
 Mulliken charges:
               1
     1  C    0.619227
     2  C   -0.108670
     3  S    0.374899
     4  S    0.296761
     5  C    1.039639
     6  C    1.129829
     7  C    0.786566
     8  N   -1.083271
     9  S    0.557371
    10  C   -1.129404
    11  N   -0.167907
    12  C   -1.098795
    13  N   -0.180503
    14  C   -0.852769
    15  N   -0.182974
 Sum of Mulliken charges =  -0.00000
 Mulliken charges with hydrogens summed into heavy atoms:
               1
     1  C    0.619227
     2  C   -0.108670
     3  S    0.374899
     4  S    0.296761
     5  C    1.039639
     6  C    1.129829
     7  C    0.786566
     8  N   -1.083271
     9  S    0.557371
    10  C   -1.129404
    11  N   -0.167907
    12  C   -1.098795
    13  N   -0.180503
    14  C   -0.852769
    15  N   -0.182974
 Electronic spatial extent (au):  <R**2>=          18444.9662
 Charge=             -0.0000 electrons
 Dipole moment (field-independent basis, Debye):
    X=              3.2601    Y=              1.4152    Z=             -3.0533  Tot=              4.6855

 Test job not archived.
 1\1\GINC-CHIMERA-NODE21\SP\RM05\Gen\C8N4S3\CONNORNM\19-Jan-2019\0\\#T 
 M05/Gen test Massage SCF=(fermi,maxcyc=60)\\M05 opt\\0,1\C,0,0.7791412
 ,0.65787195,5.73865368\C,0,0.78741318,-0.17727443,4.58613958\S,0,-0.66
 177097,1.19271759,6.59084434\S,0,-0.66950851,-0.84630685,3.83489852\C,
 0,-1.71967367,-0.20907626,6.34602203\C,0,-1.72123437,-1.01493935,5.251
 3868\C,0,2.06960144,1.04201533,6.0427087\N,0,1.94891205,-0.4334004,4.0
 3552186\S,0,3.14989391,0.36141318,4.8702858\C,0,-2.64097591,-0.4081571
 2,7.41497417\N,0,-3.38821168,-0.51558092,8.29888132\C,0,-2.6488669,-2.
 09164975,5.13249795\N,0,-3.4048552,-2.96124844,4.98016302\C,0,2.513031
 62,1.87684863,7.09702908\N,0,2.89381478,2.56743477,7.95095582\\Version
 =AS64L-G09RevD.01\HF=-1724.7614825\RMSD=5.120e-09\Dipole=1.2826212,0.5
 567936,-1.2012601\Quadrupole=7.2468567,9.2051913,-16.4520481,-10.46309
 88,14.5904235,0.7775578\PG=C01 [X(C8N4S3)]\\@


 Any fool can criticize, condemn, and complain -- and most do.
 -- Dale Carnegie
 Job cpu time:       0 days  1 hours 39 minutes  2.5 seconds.
 File lengths (MBytes):  RWF=     58 Int=      0 D2E=      0 Chk=      6 Scr=      1
 Normal termination of Gaussian 09 at Sat Jan 19 11:10:25 2019.
