 Entering Gaussian System, Link 0=/data/szalewicgrp/connornm/opt/Gaussian/g09-M05-par/g09/g09
 AtFile(1): blind-aug.gbs
 Initial command:
 /data/szalewicgrp/connornm/opt/Gaussian/g09-M05-par/g09/l1.exe "/scratch/local/Gau-44346.inp" -scrdir="/scratch/local/"
 Entering Link 1 = /data/szalewicgrp/connornm/opt/Gaussian/g09-M05-par/g09/l1.exe PID=     44347.
  
 Copyright (c) 1988,1990,1992,1993,1995,1998,2003,2009,2013,
            Gaussian, Inc.  All Rights Reserved.
  
 This is part of the Gaussian(R) 09 program.  It is based on
 the Gaussian(R) 03 system (copyright 2003, Gaussian, Inc.),
 the Gaussian(R) 98 system (copyright 1998, Gaussian, Inc.),
 the Gaussian(R) 94 system (copyright 1995, Gaussian, Inc.),
 the Gaussian 92(TM) system (copyright 1992, Gaussian, Inc.),
 the Gaussian 90(TM) system (copyright 1990, Gaussian, Inc.),
 the Gaussian 88(TM) system (copyright 1988, Gaussian, Inc.),
 the Gaussian 86(TM) system (copyright 1986, Carnegie Mellon
 University), and the Gaussian 82(TM) system (copyright 1983,
 Carnegie Mellon University). Gaussian is a federally registered
 trademark of Gaussian, Inc.
  
 This software contains proprietary and confidential information,
 including trade secrets, belonging to Gaussian, Inc.
  
 This software is provided under written license and may be
 used, copied, transmitted, or stored only in accord with that
 written license.
  
 The following legend is applicable only to US Government
 contracts under FAR:
  
                    RESTRICTED RIGHTS LEGEND
  
 Use, reproduction and disclosure by the US Government is
 subject to restrictions as set forth in subparagraphs (a)
 and (c) of the Commercial Computer Software - Restricted
 Rights clause in FAR 52.227-19.
  
 Gaussian, Inc.
 340 Quinnipiac St., Bldg. 40, Wallingford CT 06492
  
  
 ---------------------------------------------------------------
 Warning -- This program may not be used in any manner that
 competes with the business of Gaussian, Inc. or will provide
 assistance to any competitor of Gaussian, Inc.  The licensee
 of this program is prohibited from giving any competitor of
 Gaussian, Inc. access to this program.  By using this program,
 the user acknowledges that Gaussian, Inc. is engaged in the
 business of creating and licensing software in the field of
 computational chemistry and represents and warrants to the
 licensee that it is not a competitor of Gaussian, Inc. and that
 it will not use this program in any manner prohibited above.
 ---------------------------------------------------------------
  

 Cite this work as:
 Gaussian 09, Revision D.01,
 M. J. Frisch, G. W. Trucks, H. B. Schlegel, G. E. Scuseria, 
 M. A. Robb, J. R. Cheeseman, G. Scalmani, V. Barone, B. Mennucci, 
 G. A. Petersson, H. Nakatsuji, M. Caricato, X. Li, H. P. Hratchian, 
 A. F. Izmaylov, J. Bloino, G. Zheng, J. L. Sonnenberg, M. Hada, 
 M. Ehara, K. Toyota, R. Fukuda, J. Hasegawa, M. Ishida, T. Nakajima, 
 Y. Honda, O. Kitao, H. Nakai, T. Vreven, J. A. Montgomery, Jr., 
 J. E. Peralta, F. Ogliaro, M. Bearpark, J. J. Heyd, E. Brothers, 
 K. N. Kudin, V. N. Staroverov, T. Keith, R. Kobayashi, J. Normand, 
 K. Raghavachari, A. Rendell, J. C. Burant, S. S. Iyengar, J. Tomasi, 
 M. Cossi, N. Rega, J. M. Millam, M. Klene, J. E. Knox, J. B. Cross, 
 V. Bakken, C. Adamo, J. Jaramillo, R. Gomperts, R. E. Stratmann, 
 O. Yazyev, A. J. Austin, R. Cammi, C. Pomelli, J. W. Ochterski, 
 R. L. Martin, K. Morokuma, V. G. Zakrzewski, G. A. Voth, 
 P. Salvador, J. J. Dannenberg, S. Dapprich, A. D. Daniels, 
 O. Farkas, J. B. Foresman, J. V. Ortiz, J. Cioslowski, 
 and D. J. Fox, Gaussian, Inc., Wallingford CT, 2013.
 
 ******************************************
 Gaussian 09:  AS64L-G09RevD.01 24-Apr-2013
                19-Jan-2019 
 ******************************************
 %Chk=BLIND02443
 %Mem=1GB
 %NProcShared=48
 Will use up to   48 processors via shared memory.
 ---------------------------------------------
 #T M05/Gen test Massage SCF=(fermi,maxcyc=60)
 ---------------------------------------------
 -------
 M05 opt
 -------
 Symbolic Z-matrix:
 Charge =  0 Multiplicity = 1
 6                     0.51821   0.84846  -0.22952 
 6                     0.78653  -0.24051  -1.10586 
 16                    0.08446   0.69937   1.46699 
 16                    0.69415  -1.94333  -0.62999 
 6                    -0.8219   -0.82431   1.43496 
 6                    -0.57682  -1.87097   0.60305 
 6                     0.72009   2.04062  -0.89534 
 7                     1.15629   0.04759  -2.32985 
 16                    1.24162   1.6999   -2.51297 
 6                    -1.84573  -0.88715   2.42437 
 7                    -2.65168  -0.90095   3.26189 
 6                    -1.33742  -3.07414   0.69156 
 7                    -1.9118   -4.08304   0.74746 
 6                     0.57905   3.35942  -0.39933 
 7                     0.47731   4.44861  -0.00638 
 6                     0.57765   0.81226   7.59223 
 6                    -0.24417   0.38732   6.51064 
 16                    0.17736   0.64276   9.29504 
 16                   -1.8075   -0.41955   6.70956 
 6                    -0.75131  -0.86733   9.25879 
 6                    -1.53858  -1.28517   8.23251 
 6                     1.70331   1.44174   7.10035 
 7                     0.17702   0.64411   5.29634 
 16                    1.62119   1.46874   5.36906 
 6                    -0.63856  -1.62248   10.46217 
 7                    -0.53462  -2.19052   11.471 
 6                    -2.28342  -2.49793   8.32397 
 7                    -2.92986  -3.46295   8.36629 
 6                     2.77233   2.02348   7.82419 
 7                     3.65346   2.51399   8.4022 
 
                    Distance matrix (angstroms):
                    1          2          3          4          5
     1  C    0.000000
     2  C    1.423315   0.000000
     3  S    1.757418   2.827694   0.000000
     4  S    2.825849   1.770477   3.428253   0.000000
     5  C    2.713774   3.063280   1.773167   2.795470   0.000000
     6  C    3.047557   2.727187   2.791121   1.772288   1.359281
     7  C    1.380327   2.291783   2.789903   3.992857   4.001979
     8  N    2.336642   1.310672   3.998700   2.658358   4.341342
     9  S    2.542129   2.439721   4.263822   4.137445   5.120151
    10  C    3.955208   4.450782   2.675676   4.110426   1.425163
    11  N    5.029770   5.597745   3.642685   5.237162   2.586817
    12  C    4.436049   3.971317   4.106384   2.674416   2.424897
    13  N    5.583831   5.047859   5.232040   3.642352   3.504263
    14  C    2.517432   3.674472   3.286888   5.309014   4.778168
    15  N    3.607292   4.826214   4.047461   6.425950   5.618639
    16  C    7.822063   8.764065   6.146103   8.672474   6.522966
    17  C    6.798794   7.711523   5.063965   7.569738   5.250169
    18  S    9.532878  10.456102   7.828807  10.269430   8.058018
    19  S    7.427486   8.236615   5.684714   7.902474   5.381130
    20  C    9.725414  10.496853   7.991572  10.051623   7.824264
    21  C    8.965975   9.680013   7.234977   9.163087   6.850740
    22  C    7.448720   8.426884   5.908175   8.499132   6.603657
    23  N    5.540155   6.491709   3.830869   6.487194   4.250218
    24  S    5.739812   6.748543   4.263758   6.963494   5.167581
    25  C   11.034308  11.737128   9.318103  11.176544   9.064281
    26  N   12.134491  12.795519  10.431434  12.165723  10.132669
    27  C    9.602584  10.170657   7.927656   9.452348   7.238468
    28  N   10.215935  10.673205   8.602982   9.817112   7.710327
    29  C    8.445354   9.424168   7.027939   9.567008   7.864519
    30  N    9.333298  10.305818   8.007984  10.497893   8.928358
                    6          7          8          9         10
     6  C    0.000000
     7  C    4.384939   0.000000
     8  N    3.909794   2.494036   0.000000
     9  S    5.076167   1.733444   1.664607   0.000000
    10  C    2.428007   5.116215   5.699860   6.371958   0.000000
    11  N    3.509330   6.107712   6.831389   7.434461   1.162408
    12  C    1.426163   5.736923   5.009263   6.301738   2.836178
    13  N    2.587713   6.864751   5.995430   7.349618   3.609722
    14  C    5.449573   1.416040   3.876636   2.767765   5.646781
    15  N    6.435818   2.578302   5.022796   3.797715   6.306769
    16  C    7.575037   8.577182   9.968309  10.165822   5.955468
    17  C    6.333253   7.649292   8.957168   9.238830   4.570212
    18  S    9.079555  10.300117  11.681204  11.902915   7.323912
    19  S    6.396138   8.383049   9.524340   9.942042   4.310794
    20  C    8.715478  10.664310  11.780176  12.212160   6.921524
    21  C    7.712117   9.973967  10.981891  11.493716   5.829859
    22  C    7.641200   8.078146   9.548375   9.627864   6.315395
    23  N    5.377815   6.370405   7.711909   7.951946   3.832037
    24  S    6.220915   6.354666   7.842766   7.894555   5.122592
    25  C    9.862443  12.010714  13.024837  13.525075   8.161144
    26  N   10.872720  13.130232  14.083023  14.623327   9.233593
    27  C    7.932091  10.705842  11.481074  12.144420   6.131188
    28  N    8.266739  11.374929  11.976134  12.744194   6.566315
    29  C    8.861629   8.957803  10.469967  10.454892   7.678302
    30  N    9.896969   9.760794  11.291407  11.208069   8.805872
                   11         12         13         14         15
    11  N    0.000000
    12  C    3.613393   0.000000
    13  N    4.122555   1.162293   0.000000
    14  C    6.480188   6.800997   7.931563   0.000000
    15  N    7.006418   7.769948   8.891861   1.162367   0.000000
    16  C    5.667061   8.148056   8.775659   8.387676   8.424488
    17  C    4.243830   6.858460   7.481928   7.566948   7.712722
    18  S    6.839991   9.493668   9.987937  10.075832  10.054393
    19  S    3.582011   6.594244   6.998471   8.397167   8.603664
    20  C    6.290898   8.866280   9.172253  10.626125  10.752304
    21  C    5.108198   7.752853   7.999579  10.028218  10.238127
    22  C    6.260028   8.409026   9.162499   7.822190   7.813445
    23  N    3.811532   6.109246   6.884870   6.322594   6.533239
    24  S    5.320999   7.160312   8.041358   6.159148   6.251677
    25  C    7.511149   9.902551  10.102032  12.011415  12.152934
    26  N    8.575219  10.845341  10.975991  13.150917  13.297821
    27  C    5.320772   7.712362   7.749456  10.890278  11.192438
    28  N    5.718052   7.847830   7.711513  11.648739  12.012618
    29  C    7.667255   9.682466  10.455180   8.615192   8.512707
    30  N    8.822671  10.751282  11.536378   9.361292   9.194289
                   16         17         18         19         20
    16  C    0.000000
    17  C    1.423315   0.000000
    18  S    1.757418   2.827694   0.000000
    19  S    2.825849   1.770477   3.428253   0.000000
    20  C    2.713774   3.063280   1.773167   2.795470   0.000000
    21  C    3.047557   2.727187   2.791121   1.772288   1.359281
    22  C    1.380327   2.291783   2.789903   3.992857   4.001979
    23  N    2.336642   1.310672   3.998700   2.658358   4.341342
    24  S    2.542129   2.439721   4.263822   4.137445   5.120151
    25  C    3.955208   4.450782   2.675676   4.110426   1.425163
    26  N    5.029770   5.597745   3.642685   5.237162   2.586817
    27  C    4.436049   3.971317   4.106384   2.674416   2.424897
    28  N    5.583831   5.047859   5.232040   3.642352   3.504263
    29  C    2.517432   3.674472   3.286888   5.309014   4.778168
    30  N    3.607292   4.826214   4.047461   6.425950   5.618639
                   21         22         23         24         25
    21  C    0.000000
    22  C    4.384939   0.000000
    23  N    3.909794   2.494036   0.000000
    24  S    5.076167   1.733444   1.664607   0.000000
    25  C    2.428007   5.116215   5.699860   6.371958   0.000000
    26  N    3.509330   6.107712   6.831389   7.434461   1.162408
    27  C    1.426163   5.736923   5.009263   6.301738   2.836178
    28  N    2.587713   6.864751   5.995430   7.349618   3.609722
    29  C    5.449573   1.416040   3.876636   2.767765   5.646781
    30  N    6.435818   2.578302   5.022796   3.797715   6.306769
                   26         27         28         29         30
    26  N    0.000000
    27  C    3.613393   0.000000
    28  N    4.122555   1.162293   0.000000
    29  C    6.480188   6.800997   7.931563   0.000000
    30  N    7.006418   7.769948   8.891861   1.162367   0.000000
 Symmetry turned off by external request.
 Framework group  C1[X(C16N8S6)]
 Deg. of freedom    84
 Rotational constants (GHZ):      0.1853679      0.0535218      0.0445217
   714 basis functions,  1518 primitive gaussians,   774 cartesian basis functions
   124 alpha electrons      124 beta electrons
       nuclear repulsion energy      3367.8232869405 Hartrees.
 IMHF & INEx in M05                  599485                  400514
 NAtoms=   30 NActive=   30 NUniq=   30 SFac= 1.00D+00 NAtFMM=   60 NAOKFM=F Big=F
 PrsmSu:  requested number of processors reduced to:  26 ShMem   1 Linda.
 ExpMin= 3.99D-02 ExpMax= 1.11D+05 ExpMxC= 1.07D+03 IAcc=3 IRadAn=         5 AccDes= 0.00D+00
 Harris functional with IExCor= 1009 and IRadAn=       5 diagonalized for initial guess.
 HarFok:  IExCor= 1009 AccDes= 0.00D+00 IRadAn=         5 IDoV= 1 UseB2=F ITyADJ=14
 ICtDFT=  3500011 ScaDFX=  1.000000  1.000000  1.000000  1.000000
 FoFCou: FMM=F IPFlag=           0 FMFlag=      100000 FMFlg1=           0
         NFxFlg=           0 DoJE=T BraDBF=F KetDBF=T FulRan=T
         wScrn=  0.000000 ICntrl=     500 IOpCl=  0 I1Cent=   200000004 NGrid=           0
         NMat0=    1 NMatS0=      1 NMatT0=    0 NMatD0=    1 NMtDS0=    0 NMtDT0=    0
 Symmetry not used in FoFCou.
 SCF Done:  E(RM05) =  -3448.35931830     A.U. after   19 cycles
            NFock= 19  Conv=0.81D-08     -V/T= 2.0058

 **********************************************************************

            Population analysis using the SCF density.

 **********************************************************************

 Alpha  occ. eigenvalues --  -90.55118 -90.54753 -90.52382 -90.51868 -90.51760
 Alpha  occ. eigenvalues --  -90.51061 -15.08233 -15.07874 -15.05078 -15.04640
 Alpha  occ. eigenvalues --  -15.04540 -15.04539 -15.03866 -15.03822 -10.89655
 Alpha  occ. eigenvalues --  -10.89514 -10.89393 -10.88975 -10.88908 -10.88775
 Alpha  occ. eigenvalues --  -10.88442 -10.88059 -10.87102 -10.86665 -10.84702
 Alpha  occ. eigenvalues --  -10.84252 -10.84109 -10.83951 -10.83346 -10.83241
 Alpha  occ. eigenvalues --   -8.57723  -8.57372  -8.55288  -8.54803  -8.54668
 Alpha  occ. eigenvalues --   -8.53985  -6.40444  -6.40096  -6.40094  -6.39784
 Alpha  occ. eigenvalues --   -6.39746  -6.39433  -6.38035  -6.37722  -6.37540
 Alpha  occ. eigenvalues --   -6.37415  -6.37264  -6.37231  -6.37101  -6.36772
 Alpha  occ. eigenvalues --   -6.36720  -6.36641  -6.36409  -6.35947  -1.20955
 Alpha  occ. eigenvalues --   -1.20600  -1.13302  -1.12596  -1.12589  -1.12151
 Alpha  occ. eigenvalues --   -1.11733  -1.11013  -1.08079  -1.07413  -1.04231
 Alpha  occ. eigenvalues --   -1.03739  -0.99255  -0.98718  -0.97840  -0.97241
 Alpha  occ. eigenvalues --   -0.88460  -0.87909  -0.84993  -0.84415  -0.82687
 Alpha  occ. eigenvalues --   -0.82198  -0.74151  -0.73446  -0.71739  -0.71242
 Alpha  occ. eigenvalues --   -0.68315  -0.67853  -0.65089  -0.64550  -0.60029
 Alpha  occ. eigenvalues --   -0.59572  -0.57728  -0.57126  -0.55880  -0.55258
 Alpha  occ. eigenvalues --   -0.53857  -0.53401  -0.53108  -0.52708  -0.52682
 Alpha  occ. eigenvalues --   -0.52462  -0.51970  -0.51624  -0.51366  -0.50881
 Alpha  occ. eigenvalues --   -0.50732  -0.50451  -0.49866  -0.49194  -0.48685
 Alpha  occ. eigenvalues --   -0.47946  -0.47308  -0.46929  -0.46529  -0.46408
 Alpha  occ. eigenvalues --   -0.45870  -0.45784  -0.45718  -0.45183  -0.44231
 Alpha  occ. eigenvalues --   -0.43624  -0.43572  -0.42939  -0.39946  -0.39419
 Alpha  occ. eigenvalues --   -0.38109  -0.37600  -0.33595  -0.32911
 Alpha virt. eigenvalues --   -0.09824  -0.09132  -0.08756  -0.08378  -0.02833
 Alpha virt. eigenvalues --   -0.01865  -0.01727  -0.01438  -0.01073  -0.00782
 Alpha virt. eigenvalues --   -0.00365  -0.00188   0.00157   0.00404   0.01029
 Alpha virt. eigenvalues --    0.01347   0.01429   0.01885   0.02217   0.02379
 Alpha virt. eigenvalues --    0.02423   0.02541   0.02760   0.03148   0.03457
 Alpha virt. eigenvalues --    0.03764   0.03926   0.04070   0.04308   0.04901
 Alpha virt. eigenvalues --    0.05191   0.05695   0.05867   0.06152   0.06266
 Alpha virt. eigenvalues --    0.06300   0.06497   0.06664   0.07064   0.07306
 Alpha virt. eigenvalues --    0.07418   0.07653   0.07883   0.08139   0.08490
 Alpha virt. eigenvalues --    0.08716   0.08784   0.09020   0.09431   0.09832
 Alpha virt. eigenvalues --    0.10050   0.10273   0.10382   0.10530   0.10610
 Alpha virt. eigenvalues --    0.10979   0.11018   0.11271   0.11612   0.11797
 Alpha virt. eigenvalues --    0.11960   0.12070   0.12432   0.12704   0.12980
 Alpha virt. eigenvalues --    0.13227   0.13395   0.13581   0.13800   0.14105
 Alpha virt. eigenvalues --    0.14218   0.14759   0.14840   0.14884   0.15211
 Alpha virt. eigenvalues --    0.15411   0.15797   0.15959   0.16278   0.16532
 Alpha virt. eigenvalues --    0.16704   0.16858   0.17163   0.17186   0.17367
 Alpha virt. eigenvalues --    0.17544   0.17734   0.17790   0.17954   0.18290
 Alpha virt. eigenvalues --    0.18714   0.18965   0.19034   0.19244   0.19292
 Alpha virt. eigenvalues --    0.19825   0.20127   0.20475   0.20666   0.20999
 Alpha virt. eigenvalues --    0.21177   0.21252   0.21299   0.21520   0.21753
 Alpha virt. eigenvalues --    0.22063   0.22346   0.22545   0.22705   0.22826
 Alpha virt. eigenvalues --    0.23003   0.23202   0.23399   0.23407   0.23561
 Alpha virt. eigenvalues --    0.23987   0.24195   0.24436   0.24708   0.25016
 Alpha virt. eigenvalues --    0.25150   0.25344   0.25519   0.25724   0.26081
 Alpha virt. eigenvalues --    0.26142   0.26477   0.26509   0.26711   0.26896
 Alpha virt. eigenvalues --    0.27212   0.27348   0.27419   0.27820   0.28156
 Alpha virt. eigenvalues --    0.28264   0.28304   0.28861   0.29059   0.29419
 Alpha virt. eigenvalues --    0.29525   0.29722   0.29864   0.30388   0.30571
 Alpha virt. eigenvalues --    0.31031   0.31435   0.31528   0.31898   0.32346
 Alpha virt. eigenvalues --    0.32448   0.33084   0.33665   0.34167   0.34375
 Alpha virt. eigenvalues --    0.34614   0.34977   0.35417   0.35578   0.35931
 Alpha virt. eigenvalues --    0.36260   0.36389   0.36914   0.37169   0.37684
 Alpha virt. eigenvalues --    0.38079   0.38231   0.38518   0.38755   0.39268
 Alpha virt. eigenvalues --    0.39622   0.39884   0.40233   0.41140   0.41649
 Alpha virt. eigenvalues --    0.41836   0.42247   0.42637   0.42929   0.43485
 Alpha virt. eigenvalues --    0.43671   0.44494   0.44536   0.45266   0.46054
 Alpha virt. eigenvalues --    0.46335   0.46504   0.47232   0.47571   0.48285
 Alpha virt. eigenvalues --    0.48897   0.49073   0.49837   0.50032   0.50531
 Alpha virt. eigenvalues --    0.50996   0.51317   0.51332   0.51479   0.51936
 Alpha virt. eigenvalues --    0.52248   0.52971   0.53736   0.53982   0.54132
 Alpha virt. eigenvalues --    0.54550   0.54754   0.54912   0.55216   0.55399
 Alpha virt. eigenvalues --    0.55808   0.55826   0.56385   0.56531   0.56749
 Alpha virt. eigenvalues --    0.57142   0.57421   0.57934   0.58256   0.58432
 Alpha virt. eigenvalues --    0.58632   0.58845   0.59070   0.59802   0.60139
 Alpha virt. eigenvalues --    0.60214   0.60447   0.60685   0.60979   0.61186
 Alpha virt. eigenvalues --    0.61660   0.62153   0.62245   0.62561   0.62878
 Alpha virt. eigenvalues --    0.63269   0.63576   0.63859   0.64218   0.64328
 Alpha virt. eigenvalues --    0.64561   0.65084   0.65493   0.65800   0.66150
 Alpha virt. eigenvalues --    0.66768   0.67224   0.67510   0.67648   0.68178
 Alpha virt. eigenvalues --    0.68579   0.68882   0.68980   0.69515   0.70016
 Alpha virt. eigenvalues --    0.70296   0.70774   0.71143   0.71688   0.72556
 Alpha virt. eigenvalues --    0.72662   0.73231   0.73375   0.73725   0.74304
 Alpha virt. eigenvalues --    0.74777   0.75266   0.75323   0.75848   0.75930
 Alpha virt. eigenvalues --    0.76215   0.77205   0.77466   0.77769   0.77815
 Alpha virt. eigenvalues --    0.78104   0.78186   0.78659   0.78889   0.79092
 Alpha virt. eigenvalues --    0.79129   0.79818   0.79979   0.80281   0.80494
 Alpha virt. eigenvalues --    0.81063   0.81322   0.81588   0.81978   0.82433
 Alpha virt. eigenvalues --    0.82574   0.82741   0.83301   0.83822   0.84349
 Alpha virt. eigenvalues --    0.85137   0.85261   0.85325   0.85800   0.86038
 Alpha virt. eigenvalues --    0.86249   0.86600   0.86886   0.87080   0.87331
 Alpha virt. eigenvalues --    0.87468   0.87693   0.88576   0.88998   0.89133
 Alpha virt. eigenvalues --    0.89244   0.89547   0.90096   0.90414   0.90498
 Alpha virt. eigenvalues --    0.90870   0.91273   0.91521   0.92002   0.92255
 Alpha virt. eigenvalues --    0.92338   0.92433   0.92563   0.93368   0.93838
 Alpha virt. eigenvalues --    0.94382   0.94943   0.95004   0.95330   0.95805
 Alpha virt. eigenvalues --    0.96411   0.96705   0.97260   0.97957   0.98372
 Alpha virt. eigenvalues --    0.98844   0.99240   0.99968   1.00159   1.01244
 Alpha virt. eigenvalues --    1.01616   1.02194   1.02859   1.03334   1.03726
 Alpha virt. eigenvalues --    1.04479   1.04521   1.05151   1.06234   1.06548
 Alpha virt. eigenvalues --    1.06595   1.07109   1.07921   1.08312   1.08870
 Alpha virt. eigenvalues --    1.09214   1.10067   1.10419   1.11018   1.11367
 Alpha virt. eigenvalues --    1.11631   1.12382   1.13057   1.13471   1.13889
 Alpha virt. eigenvalues --    1.14141   1.14592   1.14916   1.15399   1.15975
 Alpha virt. eigenvalues --    1.16315   1.16878   1.18282   1.18656   1.18844
 Alpha virt. eigenvalues --    1.20292   1.21057   1.21314   1.21764   1.21968
 Alpha virt. eigenvalues --    1.22888   1.23153   1.23529   1.24071   1.24731
 Alpha virt. eigenvalues --    1.25029   1.25586   1.26591   1.27688   1.28028
 Alpha virt. eigenvalues --    1.28634   1.29421   1.30213   1.30378   1.30596
 Alpha virt. eigenvalues --    1.31260   1.32527   1.33644   1.34459   1.35468
 Alpha virt. eigenvalues --    1.38145   1.40113   1.40345   1.40704   1.40786
 Alpha virt. eigenvalues --    1.40961   1.41828   1.42526   1.43182   1.43563
 Alpha virt. eigenvalues --    1.44091   1.44422   1.45425   1.46018   1.47013
 Alpha virt. eigenvalues --    1.47377   1.47652   1.48484   1.50006   1.50181
 Alpha virt. eigenvalues --    1.50344   1.50817   1.51509   1.52103   1.52160
 Alpha virt. eigenvalues --    1.52372   1.52695   1.52990   1.53608   1.54143
 Alpha virt. eigenvalues --    1.54363   1.54633   1.54863   1.55667   1.56191
 Alpha virt. eigenvalues --    1.56623   1.57059   1.57163   1.57818   1.57915
 Alpha virt. eigenvalues --    1.58615   1.59070   1.59456   1.60289   1.60523
 Alpha virt. eigenvalues --    1.61060   1.61305   1.61531   1.62184   1.62452
 Alpha virt. eigenvalues --    1.63546   1.64021   1.64324   1.64392   1.65465
 Alpha virt. eigenvalues --    1.66110   1.66857   1.67261   1.68040   1.68738
 Alpha virt. eigenvalues --    1.69275   1.70098   1.70494   1.71352   1.71657
 Alpha virt. eigenvalues --    1.71816   1.72454   1.73125   1.74762   1.76327
 Alpha virt. eigenvalues --    1.77412   1.77639   1.77991   1.78690   1.78895
 Alpha virt. eigenvalues --    1.79583   1.80676   1.81179   1.82120   1.83214
 Alpha virt. eigenvalues --    1.83834   1.84421   1.86346   1.88320   1.88783
 Alpha virt. eigenvalues --    1.89495   1.90497   1.90672   1.91429   1.91734
 Alpha virt. eigenvalues --    1.92418   1.93665   1.94884   1.95299   1.96248
 Alpha virt. eigenvalues --    1.97341   1.98197   1.99330   2.00534   2.01470
 Alpha virt. eigenvalues --    2.02290   2.02728   2.05941   2.06534   2.07039
 Alpha virt. eigenvalues --    2.08353   2.08874   2.09186   2.09731   2.10653
 Alpha virt. eigenvalues --    2.10964   2.13689   2.14803   2.15767   2.19038
 Alpha virt. eigenvalues --    2.20729   2.21496   2.23515   2.26239   2.26721
 Alpha virt. eigenvalues --    2.29586   2.29907   2.32181   2.32553   2.36969
 Alpha virt. eigenvalues --    2.37755   2.37802   2.38004   2.38335   2.38459
 Alpha virt. eigenvalues --    2.38816   2.39245   2.39976   2.40169   2.40251
 Alpha virt. eigenvalues --    2.41066   2.41339   2.42169   2.43092   2.43460
 Alpha virt. eigenvalues --    2.43876   2.44314   2.45243   2.46003   2.47948
 Alpha virt. eigenvalues --    2.50064   2.52015   2.52586   2.54875   2.56429
 Alpha virt. eigenvalues --    2.61849   2.63221   2.65366   2.67179   2.68838
 Alpha virt. eigenvalues --    2.69994   2.71985   2.73082   2.73465   2.74563
 Alpha virt. eigenvalues --    2.76827   2.78236   2.80066   2.81015   2.82501
 Alpha virt. eigenvalues --    2.83228   2.94513   2.95085   2.99790   3.00929
 Alpha virt. eigenvalues --    3.01824   3.05340   3.10543   3.11042   3.12492
 Alpha virt. eigenvalues --    3.15199   3.15930   3.18068   3.18983   3.23374
 Alpha virt. eigenvalues --    3.25460   3.25661   3.28532   3.32642   3.36498
 Alpha virt. eigenvalues --    3.40086   3.63639   3.64982   3.79023   3.80368
          Condensed to atoms (all electrons):
 Mulliken charges:
               1
     1  C    0.292858
     2  C   -0.134922
     3  S    0.789749
     4  S    0.296386
     5  C    1.128217
     6  C    1.027917
     7  C    0.925625
     8  N   -1.073696
     9  S    0.576522
    10  C   -1.338682
    11  N   -0.062370
    12  C   -1.135866
    13  N   -0.149205
    14  C   -0.980335
    15  N   -0.155825
    16  C    0.705855
    17  C   -0.247359
    18  S    0.354060
    19  S    0.371814
    20  C    1.168822
    21  C    1.014209
    22  C    0.761217
    23  N   -0.971540
    24  S    0.550929
    25  C   -1.206127
    26  N   -0.138718
    27  C   -1.129630
    28  N   -0.157919
    29  C   -0.943478
    30  N   -0.138508
 Sum of Mulliken charges =  -0.00000
 Mulliken charges with hydrogens summed into heavy atoms:
               1
     1  C    0.292858
     2  C   -0.134922
     3  S    0.789749
     4  S    0.296386
     5  C    1.128217
     6  C    1.027917
     7  C    0.925625
     8  N   -1.073696
     9  S    0.576522
    10  C   -1.338682
    11  N   -0.062370
    12  C   -1.135866
    13  N   -0.149205
    14  C   -0.980335
    15  N   -0.155825
    16  C    0.705855
    17  C   -0.247359
    18  S    0.354060
    19  S    0.371814
    20  C    1.168822
    21  C    1.014209
    22  C    0.761217
    23  N   -0.971540
    24  S    0.550929
    25  C   -1.206127
    26  N   -0.138718
    27  C   -1.129630
    28  N   -0.157919
    29  C   -0.943478
    30  N   -0.138508
 Electronic spatial extent (au):  <R**2>=          35083.8190
 Charge=             -0.0000 electrons
 Dipole moment (field-independent basis, Debye):
    X=              3.3009    Y=              3.8517    Z=             -6.4239  Tot=              8.1852

 Test job not archived.
 1\1\GINC-CHIMERA-NODE43\SP\RM05\Gen\C16N8S6\CONNORNM\19-Jan-2019\0\\#T
  M05/Gen test Massage SCF=(fermi,maxcyc=60)\\M05 opt\\0,1\C,0,0.518213
 71,0.84845979,-0.22952005\C,0,0.78653455,-0.24050968,-1.1058625\S,0,0.
 08446185,0.69937056,1.46699059\S,0,0.69415188,-1.94333056,-0.6299898\C
 ,0,-0.82190004,-0.82431066,1.43496348\C,0,-0.57682118,-1.87097485,0.60
 305336\C,0,0.72008619,2.04061558,-0.89533931\N,0,1.15629281,0.04759477
 ,-2.32984562\S,0,1.24162274,1.69989629,-2.51297232\C,0,-1.84572693,-0.
 88714873,2.42436711\N,0,-2.65168142,-0.90094787,3.26188724\C,0,-1.3374
 177,-3.07413769,0.6915635\N,0,-1.91180105,-4.08304054,0.74746464\C,0,0
 .57904514,3.35942147,-0.39932833\N,0,0.47730707,4.44861099,-0.00637611
 \C,0,0.57765389,0.81225779,7.59223374\C,0,-0.24417461,0.38731957,6.510
 63673\S,0,0.1773619,0.64276237,9.2950415\S,0,-1.80750045,-0.41954606,6
 .70955505\C,0,-0.75131058,-0.86732882,9.25879113\C,0,-1.53858357,-1.28
 516731,8.23250838\C,0,1.70331268,1.4417385,7.10035008\N,0,0.17702251,0
 .64411065,5.29634214\S,0,1.62119019,1.46873676,5.3690634\C,0,-0.638561
 99,-1.62247835,10.46217245\N,0,-0.53461949,-2.19051512,11.47099513\C,0
 ,-2.28342385,-2.49792873,8.32396678\N,0,-2.92985896,-3.46294516,8.3662
 8782\C,0,2.77232752,2.02348289,7.82419342\N,0,3.65346446,2.51399003,8.
 4022041\\Version=AS64L-G09RevD.01\HF=-3448.3593183\RMSD=8.085e-09\Dipo
 le=1.2986918,1.515363,-2.5273397\Quadrupole=17.7871336,1.8522736,-19.6
 394072,-16.2420809,1.5850598,19.444999\PG=C01 [X(C16N8S6)]\\@


 There ain't no surer way to find out whether you
 like people or hate them than to travel with them.
                                     -- Mark Twain
 Job cpu time:       0 days 10 hours 49 minutes 26.4 seconds.
 File lengths (MBytes):  RWF=    225 Int=      0 D2E=      0 Chk=     19 Scr=      1
 Normal termination of Gaussian 09 at Sat Jan 19 12:15:57 2019.
