 Entering Gaussian System, Link 0=/data/szalewicgrp/connornm/opt/Gaussian/g09-M05-par/g09/g09
 AtFile(1): blind-aug.gbs
 Initial command:
 /data/szalewicgrp/connornm/opt/Gaussian/g09-M05-par/g09/l1.exe "/scratch/local/Gau-21973.inp" -scrdir="/scratch/local/"
 Entering Link 1 = /data/szalewicgrp/connornm/opt/Gaussian/g09-M05-par/g09/l1.exe PID=     21974.
  
 Copyright (c) 1988,1990,1992,1993,1995,1998,2003,2009,2013,
            Gaussian, Inc.  All Rights Reserved.
  
 This is part of the Gaussian(R) 09 program.  It is based on
 the Gaussian(R) 03 system (copyright 2003, Gaussian, Inc.),
 the Gaussian(R) 98 system (copyright 1998, Gaussian, Inc.),
 the Gaussian(R) 94 system (copyright 1995, Gaussian, Inc.),
 the Gaussian 92(TM) system (copyright 1992, Gaussian, Inc.),
 the Gaussian 90(TM) system (copyright 1990, Gaussian, Inc.),
 the Gaussian 88(TM) system (copyright 1988, Gaussian, Inc.),
 the Gaussian 86(TM) system (copyright 1986, Carnegie Mellon
 University), and the Gaussian 82(TM) system (copyright 1983,
 Carnegie Mellon University). Gaussian is a federally registered
 trademark of Gaussian, Inc.
  
 This software contains proprietary and confidential information,
 including trade secrets, belonging to Gaussian, Inc.
  
 This software is provided under written license and may be
 used, copied, transmitted, or stored only in accord with that
 written license.
  
 The following legend is applicable only to US Government
 contracts under FAR:
  
                    RESTRICTED RIGHTS LEGEND
  
 Use, reproduction and disclosure by the US Government is
 subject to restrictions as set forth in subparagraphs (a)
 and (c) of the Commercial Computer Software - Restricted
 Rights clause in FAR 52.227-19.
  
 Gaussian, Inc.
 340 Quinnipiac St., Bldg. 40, Wallingford CT 06492
  
  
 ---------------------------------------------------------------
 Warning -- This program may not be used in any manner that
 competes with the business of Gaussian, Inc. or will provide
 assistance to any competitor of Gaussian, Inc.  The licensee
 of this program is prohibited from giving any competitor of
 Gaussian, Inc. access to this program.  By using this program,
 the user acknowledges that Gaussian, Inc. is engaged in the
 business of creating and licensing software in the field of
 computational chemistry and represents and warrants to the
 licensee that it is not a competitor of Gaussian, Inc. and that
 it will not use this program in any manner prohibited above.
 ---------------------------------------------------------------
  

 Cite this work as:
 Gaussian 09, Revision D.01,
 M. J. Frisch, G. W. Trucks, H. B. Schlegel, G. E. Scuseria, 
 M. A. Robb, J. R. Cheeseman, G. Scalmani, V. Barone, B. Mennucci, 
 G. A. Petersson, H. Nakatsuji, M. Caricato, X. Li, H. P. Hratchian, 
 A. F. Izmaylov, J. Bloino, G. Zheng, J. L. Sonnenberg, M. Hada, 
 M. Ehara, K. Toyota, R. Fukuda, J. Hasegawa, M. Ishida, T. Nakajima, 
 Y. Honda, O. Kitao, H. Nakai, T. Vreven, J. A. Montgomery, Jr., 
 J. E. Peralta, F. Ogliaro, M. Bearpark, J. J. Heyd, E. Brothers, 
 K. N. Kudin, V. N. Staroverov, T. Keith, R. Kobayashi, J. Normand, 
 K. Raghavachari, A. Rendell, J. C. Burant, S. S. Iyengar, J. Tomasi, 
 M. Cossi, N. Rega, J. M. Millam, M. Klene, J. E. Knox, J. B. Cross, 
 V. Bakken, C. Adamo, J. Jaramillo, R. Gomperts, R. E. Stratmann, 
 O. Yazyev, A. J. Austin, R. Cammi, C. Pomelli, J. W. Ochterski, 
 R. L. Martin, K. Morokuma, V. G. Zakrzewski, G. A. Voth, 
 P. Salvador, J. J. Dannenberg, S. Dapprich, A. D. Daniels, 
 O. Farkas, J. B. Foresman, J. V. Ortiz, J. Cioslowski, 
 and D. J. Fox, Gaussian, Inc., Wallingford CT, 2013.
 
 ******************************************
 Gaussian 09:  AS64L-G09RevD.01 24-Apr-2013
                19-Jan-2019 
 ******************************************
 %Chk=BLIND00389_mB
 %Mem=1GB
 %NProcShared=48
 Will use up to   48 processors via shared memory.
 ---------------------------------------------
 #T M05/Gen test Massage SCF=(fermi,maxcyc=60)
 ---------------------------------------------
 -------
 M05 opt
 -------
 Symbolic Z-matrix:
 Charge =  0 Multiplicity = 1
 6                    -0.20709  -0.43412   6.75273 
 6                    -0.05781  -1.36711   5.68827 
 16                    0.6189    1.11294   6.8661 
 16                    0.97276  -1.10181   4.2733 
 6                     0.73578   1.54215   5.14964 
 6                     0.87739   0.66159   4.12387 
 6                    -1.04351  -0.95982   7.71676 
 7                    -0.70223  -2.50403   5.78825 
 16                   -1.5353   -2.54877   7.2287 
 6                     0.71349   2.94883   4.92193 
 7                     0.71492   4.10356   4.78858 
 6                     1.0103    1.11549   2.77841 
 7                     1.15111   1.44098   1.67155 
 6                    -1.45102  -0.37555   8.94058 
 7                    -1.78832   0.0848    9.9532 
 
                    Distance matrix (angstroms):
                    1          2          3          4          5
     1  C    0.000000
     2  C    1.423315   0.000000
     3  S    1.757418   2.827694   0.000000
     4  S    2.825849   1.770477   3.428253   0.000000
     5  C    2.713774   3.063280   1.773167   2.795470   0.000000
     6  C    3.047557   2.727187   2.791121   1.772288   1.359281
     7  C    1.380327   2.291783   2.789903   3.992857   4.001979
     8  N    2.336642   1.310672   3.998700   2.658358   4.341342
     9  S    2.542129   2.439721   4.263822   4.137445   5.120151
    10  C    3.955208   4.450782   2.675676   4.110426   1.425163
    11  N    5.029770   5.597745   3.642685   5.237162   2.586817
    12  C    4.436049   3.971317   4.106384   2.674416   2.424897
    13  N    5.583831   5.047859   5.232040   3.642352   3.504263
    14  C    2.517432   3.674472   3.286888   5.309014   4.778168
    15  N    3.607292   4.826214   4.047461   6.425950   5.618639
                    6          7          8          9         10
     6  C    0.000000
     7  C    4.384939   0.000000
     8  N    3.909794   2.494036   0.000000
     9  S    5.076167   1.733444   1.664607   0.000000
    10  C    2.428007   5.116215   5.699860   6.371958   0.000000
    11  N    3.509330   6.107712   6.831389   7.434461   1.162408
    12  C    1.426163   5.736923   5.009263   6.301738   2.836178
    13  N    2.587713   6.864751   5.995430   7.349618   3.609722
    14  C    5.449573   1.416040   3.876636   2.767765   5.646781
    15  N    6.435818   2.578302   5.022796   3.797715   6.306769
                   11         12         13         14         15
    11  N    0.000000
    12  C    3.613393   0.000000
    13  N    4.122555   1.162293   0.000000
    14  C    6.480188   6.800997   7.931563   0.000000
    15  N    7.006418   7.769948   8.891861   1.162367   0.000000
 Symmetry turned off by external request.
 Framework group  C1[X(C8N4S3)]
 Deg. of freedom    39
 Rotational constants (GHZ):      0.7722167      0.3388923      0.2463240
   357 basis functions,   759 primitive gaussians,   387 cartesian basis functions
    62 alpha electrons       62 beta electrons
       nuclear repulsion energy      1166.1400393331 Hartrees.
 IMHF & INEx in M05                  599485                  400514
 NAtoms=   15 NActive=   15 NUniq=   15 SFac= 1.00D+00 NAtFMM=   60 NAOKFM=F Big=F
 PrsmSu:  requested number of processors reduced to:  34 ShMem   1 Linda.
 ExpMin= 3.99D-02 ExpMax= 1.11D+05 ExpMxC= 1.07D+03 IAcc=3 IRadAn=         5 AccDes= 0.00D+00
 Harris functional with IExCor= 1009 and IRadAn=       5 diagonalized for initial guess.
 HarFok:  IExCor= 1009 AccDes= 0.00D+00 IRadAn=         5 IDoV= 1 UseB2=F ITyADJ=14
 ICtDFT=  3500011 ScaDFX=  1.000000  1.000000  1.000000  1.000000
 FoFCou: FMM=F IPFlag=           0 FMFlag=      100000 FMFlg1=           0
         NFxFlg=           0 DoJE=T BraDBF=F KetDBF=T FulRan=T
         wScrn=  0.000000 ICntrl=     500 IOpCl=  0 I1Cent=   200000004 NGrid=           0
         NMat0=    1 NMatS0=      1 NMatT0=    0 NMatD0=    1 NMtDS0=    0 NMtDT0=    0
 Symmetry not used in FoFCou.
 SCF Done:  E(RM05) =  -1724.76148536     A.U. after   17 cycles
            NFock= 17  Conv=0.51D-08     -V/T= 2.0061

 **********************************************************************

            Population analysis using the SCF density.

 **********************************************************************

 Alpha  occ. eigenvalues --  -90.56430 -90.53636 -90.53180 -15.08621 -15.05417
 Alpha  occ. eigenvalues --  -15.04969 -15.04934 -10.89945 -10.89827 -10.89736
 Alpha  occ. eigenvalues --  -10.88752 -10.87415 -10.84947 -10.84332 -10.84310
 Alpha  occ. eigenvalues --   -8.57525  -8.55035  -8.54608  -6.40063  -6.39712
 Alpha  occ. eigenvalues --   -6.39401  -6.37597  -6.37282  -6.37161  -6.36852
 Alpha  occ. eigenvalues --   -6.36822  -6.36391  -1.20533  -1.12895  -1.12139
 Alpha  occ. eigenvalues --   -1.11338  -1.07643  -1.03801  -0.98824  -0.97396
 Alpha  occ. eigenvalues --   -0.88003  -0.84555  -0.82236  -0.73687  -0.71296
 Alpha  occ. eigenvalues --   -0.67839  -0.64612  -0.59530  -0.57258  -0.55386
 Alpha  occ. eigenvalues --   -0.53385  -0.52648  -0.52243  -0.51890  -0.50883
 Alpha  occ. eigenvalues --   -0.50387  -0.49356  -0.48215  -0.46805  -0.46074
 Alpha  occ. eigenvalues --   -0.45933  -0.45296  -0.43720  -0.43113  -0.39488
 Alpha  occ. eigenvalues --   -0.37627  -0.33119
 Alpha virt. eigenvalues --   -0.09329  -0.08268  -0.02099  -0.01263  -0.00505
 Alpha virt. eigenvalues --   -0.00361   0.00153   0.01254   0.02018   0.02230
 Alpha virt. eigenvalues --    0.02395   0.02956   0.03189   0.04002   0.04276
 Alpha virt. eigenvalues --    0.04487   0.05428   0.06005   0.06298   0.07066
 Alpha virt. eigenvalues --    0.07272   0.07525   0.07709   0.08288   0.08492
 Alpha virt. eigenvalues --    0.09374   0.10092   0.10390   0.10525   0.10813
 Alpha virt. eigenvalues --    0.11287   0.11392   0.11976   0.12527   0.13227
 Alpha virt. eigenvalues --    0.13490   0.13936   0.14457   0.15076   0.15193
 Alpha virt. eigenvalues --    0.15904   0.16275   0.16679   0.16812   0.17188
 Alpha virt. eigenvalues --    0.17358   0.17840   0.18614   0.19046   0.19560
 Alpha virt. eigenvalues --    0.19866   0.20237   0.20684   0.20937   0.21268
 Alpha virt. eigenvalues --    0.21878   0.22207   0.22582   0.22821   0.23617
 Alpha virt. eigenvalues --    0.23755   0.24115   0.24371   0.24699   0.25260
 Alpha virt. eigenvalues --    0.25693   0.25852   0.26224   0.26623   0.26744
 Alpha virt. eigenvalues --    0.27071   0.28335   0.29194   0.29666   0.30367
 Alpha virt. eigenvalues --    0.30708   0.32418   0.33456   0.34153   0.34714
 Alpha virt. eigenvalues --    0.34951   0.35470   0.36121   0.36934   0.37595
 Alpha virt. eigenvalues --    0.38150   0.39578   0.40725   0.41169   0.42050
 Alpha virt. eigenvalues --    0.42118   0.43488   0.44136   0.45737   0.45986
 Alpha virt. eigenvalues --    0.46960   0.48550   0.49576   0.50233   0.50593
 Alpha virt. eigenvalues --    0.51525   0.51857   0.53526   0.54168   0.54423
 Alpha virt. eigenvalues --    0.54701   0.55467   0.55731   0.55840   0.56448
 Alpha virt. eigenvalues --    0.57767   0.58141   0.58552   0.59214   0.60310
 Alpha virt. eigenvalues --    0.60552   0.61098   0.61587   0.62105   0.62708
 Alpha virt. eigenvalues --    0.63720   0.64713   0.64952   0.66005   0.66558
 Alpha virt. eigenvalues --    0.67688   0.68190   0.68807   0.70103   0.70414
 Alpha virt. eigenvalues --    0.71047   0.72862   0.73467   0.73853   0.75375
 Alpha virt. eigenvalues --    0.75568   0.76455   0.77061   0.77551   0.77844
 Alpha virt. eigenvalues --    0.78242   0.79254   0.79760   0.79878   0.81107
 Alpha virt. eigenvalues --    0.81538   0.82545   0.83275   0.83956   0.84871
 Alpha virt. eigenvalues --    0.85698   0.85938   0.87124   0.87250   0.88404
 Alpha virt. eigenvalues --    0.88459   0.89345   0.89666   0.89830   0.90730
 Alpha virt. eigenvalues --    0.91171   0.91722   0.92830   0.93723   0.94367
 Alpha virt. eigenvalues --    0.95431   0.95564   0.97326   0.98745   0.99308
 Alpha virt. eigenvalues --    0.99843   1.01206   1.02847   1.03571   1.04748
 Alpha virt. eigenvalues --    1.05760   1.06745   1.08037   1.08542   1.09636
 Alpha virt. eigenvalues --    1.10233   1.11403   1.13197   1.13607   1.14403
 Alpha virt. eigenvalues --    1.15321   1.17097   1.18343   1.20284   1.20631
 Alpha virt. eigenvalues --    1.21607   1.22702   1.23935   1.24223   1.26559
 Alpha virt. eigenvalues --    1.27343   1.29760   1.30248   1.32269   1.34128
 Alpha virt. eigenvalues --    1.37311   1.40082   1.40257   1.41566   1.42731
 Alpha virt. eigenvalues --    1.43617   1.45023   1.46461   1.47274   1.49372
 Alpha virt. eigenvalues --    1.49821   1.50472   1.51643   1.51868   1.52331
 Alpha virt. eigenvalues --    1.53716   1.54193   1.55432   1.56136   1.56451
 Alpha virt. eigenvalues --    1.56787   1.58490   1.59728   1.60388   1.60520
 Alpha virt. eigenvalues --    1.62130   1.63282   1.64919   1.66026   1.67547
 Alpha virt. eigenvalues --    1.68613   1.69174   1.70470   1.71322   1.74151
 Alpha virt. eigenvalues --    1.76825   1.77078   1.79017   1.79376   1.81043
 Alpha virt. eigenvalues --    1.82959   1.85919   1.88150   1.89703   1.90607
 Alpha virt. eigenvalues --    1.91368   1.94484   1.95006   1.97393   2.00539
 Alpha virt. eigenvalues --    2.00827   2.05447   2.07036   2.08351   2.08474
 Alpha virt. eigenvalues --    2.10896   2.13938   2.18607   2.20233   2.24593
 Alpha virt. eigenvalues --    2.27646   2.30686   2.37025   2.37401   2.38001
 Alpha virt. eigenvalues --    2.38279   2.39369   2.39931   2.40470   2.42151
 Alpha virt. eigenvalues --    2.42561   2.43755   2.45057   2.51019   2.54995
 Alpha virt. eigenvalues --    2.61155   2.64125   2.68329   2.71900   2.73263
 Alpha virt. eigenvalues --    2.76308   2.78780   2.81840   2.94680   2.99731
 Alpha virt. eigenvalues --    3.01875   3.09943   3.11451   3.15939   3.17849
 Alpha virt. eigenvalues --    3.24292   3.27128   3.35293   3.59305   3.74891
          Condensed to atoms (all electrons):
 Mulliken charges:
               1
     1  C    0.619337
     2  C   -0.109087
     3  S    0.374548
     4  S    0.296880
     5  C    1.041953
     6  C    1.130466
     7  C    0.786793
     8  N   -1.083148
     9  S    0.557234
    10  C   -1.131335
    11  N   -0.167952
    12  C   -1.099482
    13  N   -0.180446
    14  C   -0.852870
    15  N   -0.182891
 Sum of Mulliken charges =  -0.00000
 Mulliken charges with hydrogens summed into heavy atoms:
               1
     1  C    0.619337
     2  C   -0.109087
     3  S    0.374548
     4  S    0.296880
     5  C    1.041953
     6  C    1.130466
     7  C    0.786793
     8  N   -1.083148
     9  S    0.557234
    10  C   -1.131335
    11  N   -0.167952
    12  C   -1.099482
    13  N   -0.180446
    14  C   -0.852870
    15  N   -0.182891
 Electronic spatial extent (au):  <R**2>=          19167.5663
 Charge=             -0.0000 electrons
 Dipole moment (field-independent basis, Debye):
    X=              0.0763    Y=             -4.3889    Z=              1.6367  Tot=              4.6848

 Test job not archived.
 1\1\GINC-CHIMERA-NODE21\SP\RM05\Gen\C8N4S3\CONNORNM\19-Jan-2019\0\\#T 
 M05/Gen test Massage SCF=(fermi,maxcyc=60)\\M05 opt\\0,1\C,0,-0.207091
 65,-0.43412408,6.75273306\C,0,-0.05781367,-1.36710556,5.68826686\S,0,0
 .61890127,1.11293754,6.86610261\S,0,0.9727632,-1.10180852,4.27330498\C
 ,0,0.73577949,1.54215125,5.14964197\C,0,0.87739179,0.66159088,4.123872
 28\C,0,-1.04351112,-0.95982028,7.71676065\N,0,-0.70222831,-2.50402848,
 5.78824734\S,0,-1.53529886,-2.54877267,7.22870155\C,0,0.71348879,2.948
 82852,4.92193196\N,0,0.71491563,4.10356141,4.78857928\C,0,1.0102952,1.
 11548609,2.77841409\N,0,1.15111106,1.44098382,1.67154993\C,0,-1.451019
 46,-0.37555133,8.94058057\N,0,-1.78832151,0.08480483,9.95319869\\Versi
 on=AS64L-G09RevD.01\HF=-1724.7614854\RMSD=5.147e-09\Dipole=0.0300004,-
 1.7267414,0.6439468\Quadrupole=5.7464262,-5.4370663,-0.3093599,0.04404
 2,5.7765132,-16.6975092\PG=C01 [X(C8N4S3)]\\@


 TO ERR IS HUMAN - AND TO BLAME IT ON A COMPUTER IS EVEN MORE SO.
 Job cpu time:       0 days  1 hours 37 minutes 11.0 seconds.
 File lengths (MBytes):  RWF=     58 Int=      0 D2E=      0 Chk=      6 Scr=      1
 Normal termination of Gaussian 09 at Sat Jan 19 10:42:42 2019.
