 Entering Gaussian System, Link 0=/data/szalewicgrp/connornm/opt/Gaussian/g09-M05-par/g09/g09
 AtFile(1): blind-aug.gbs
 Initial command:
 /data/szalewicgrp/connornm/opt/Gaussian/g09-M05-par/g09/l1.exe "/scratch/local/Gau-35967.inp" -scrdir="/scratch/local/"
 Entering Link 1 = /data/szalewicgrp/connornm/opt/Gaussian/g09-M05-par/g09/l1.exe PID=     35968.
  
 Copyright (c) 1988,1990,1992,1993,1995,1998,2003,2009,2013,
            Gaussian, Inc.  All Rights Reserved.
  
 This is part of the Gaussian(R) 09 program.  It is based on
 the Gaussian(R) 03 system (copyright 2003, Gaussian, Inc.),
 the Gaussian(R) 98 system (copyright 1998, Gaussian, Inc.),
 the Gaussian(R) 94 system (copyright 1995, Gaussian, Inc.),
 the Gaussian 92(TM) system (copyright 1992, Gaussian, Inc.),
 the Gaussian 90(TM) system (copyright 1990, Gaussian, Inc.),
 the Gaussian 88(TM) system (copyright 1988, Gaussian, Inc.),
 the Gaussian 86(TM) system (copyright 1986, Carnegie Mellon
 University), and the Gaussian 82(TM) system (copyright 1983,
 Carnegie Mellon University). Gaussian is a federally registered
 trademark of Gaussian, Inc.
  
 This software contains proprietary and confidential information,
 including trade secrets, belonging to Gaussian, Inc.
  
 This software is provided under written license and may be
 used, copied, transmitted, or stored only in accord with that
 written license.
  
 The following legend is applicable only to US Government
 contracts under FAR:
  
                    RESTRICTED RIGHTS LEGEND
  
 Use, reproduction and disclosure by the US Government is
 subject to restrictions as set forth in subparagraphs (a)
 and (c) of the Commercial Computer Software - Restricted
 Rights clause in FAR 52.227-19.
  
 Gaussian, Inc.
 340 Quinnipiac St., Bldg. 40, Wallingford CT 06492
  
  
 ---------------------------------------------------------------
 Warning -- This program may not be used in any manner that
 competes with the business of Gaussian, Inc. or will provide
 assistance to any competitor of Gaussian, Inc.  The licensee
 of this program is prohibited from giving any competitor of
 Gaussian, Inc. access to this program.  By using this program,
 the user acknowledges that Gaussian, Inc. is engaged in the
 business of creating and licensing software in the field of
 computational chemistry and represents and warrants to the
 licensee that it is not a competitor of Gaussian, Inc. and that
 it will not use this program in any manner prohibited above.
 ---------------------------------------------------------------
  

 Cite this work as:
 Gaussian 09, Revision D.01,
 M. J. Frisch, G. W. Trucks, H. B. Schlegel, G. E. Scuseria, 
 M. A. Robb, J. R. Cheeseman, G. Scalmani, V. Barone, B. Mennucci, 
 G. A. Petersson, H. Nakatsuji, M. Caricato, X. Li, H. P. Hratchian, 
 A. F. Izmaylov, J. Bloino, G. Zheng, J. L. Sonnenberg, M. Hada, 
 M. Ehara, K. Toyota, R. Fukuda, J. Hasegawa, M. Ishida, T. Nakajima, 
 Y. Honda, O. Kitao, H. Nakai, T. Vreven, J. A. Montgomery, Jr., 
 J. E. Peralta, F. Ogliaro, M. Bearpark, J. J. Heyd, E. Brothers, 
 K. N. Kudin, V. N. Staroverov, T. Keith, R. Kobayashi, J. Normand, 
 K. Raghavachari, A. Rendell, J. C. Burant, S. S. Iyengar, J. Tomasi, 
 M. Cossi, N. Rega, J. M. Millam, M. Klene, J. E. Knox, J. B. Cross, 
 V. Bakken, C. Adamo, J. Jaramillo, R. Gomperts, R. E. Stratmann, 
 O. Yazyev, A. J. Austin, R. Cammi, C. Pomelli, J. W. Ochterski, 
 R. L. Martin, K. Morokuma, V. G. Zakrzewski, G. A. Voth, 
 P. Salvador, J. J. Dannenberg, S. Dapprich, A. D. Daniels, 
 O. Farkas, J. B. Foresman, J. V. Ortiz, J. Cioslowski, 
 and D. J. Fox, Gaussian, Inc., Wallingford CT, 2013.
 
 ******************************************
 Gaussian 09:  AS64L-G09RevD.01 24-Apr-2013
                19-Jan-2019 
 ******************************************
 %Chk=BLIND00392_mB
 %Mem=1GB
 %NProcShared=48
 Will use up to   48 processors via shared memory.
 ---------------------------------------------
 #T M05/Gen test Massage SCF=(fermi,maxcyc=60)
 ---------------------------------------------
 -------
 M05 opt
 -------
 Symbolic Z-matrix:
 Charge =  0 Multiplicity = 1
 6                    -0.76314   0.07262   6.24183 
 6                    -0.30048  -1.25861   6.04282 
 16                    0.22618   1.51886   6.10715 
 16                    1.35982  -1.67502   5.5905 
 6                     1.35867   1.01734   4.83827 
 6                     1.80736  -0.24983   4.63679 
 6                    -2.08862   0.05067   6.62644 
 7                    -1.15693  -2.2306    6.24179 
 16                   -2.61731  -1.59703   6.72839 
 6                     1.81765   2.10292   4.03705 
 7                     2.18119   3.023     3.42672 
 6                     2.75768  -0.53922   3.61351 
 7                     3.55267  -0.81584   2.81202 
 6                    -2.93233   1.14488   6.93635 
 7                    -3.63633   2.03049   7.20314 
 
                    Distance matrix (angstroms):
                    1          2          3          4          5
     1  C    0.000000
     2  C    1.423315   0.000000
     3  S    1.757418   2.827694   0.000000
     4  S    2.825849   1.770477   3.428253   0.000000
     5  C    2.713774   3.063280   1.773167   2.795470   0.000000
     6  C    3.047557   2.727187   2.791121   1.772288   1.359281
     7  C    1.380327   2.291783   2.789903   3.992857   4.001979
     8  N    2.336642   1.310672   3.998700   2.658358   4.341342
     9  S    2.542129   2.439721   4.263822   4.137445   5.120151
    10  C    3.955208   4.450782   2.675676   4.110426   1.425163
    11  N    5.029770   5.597745   3.642685   5.237162   2.586817
    12  C    4.436049   3.971317   4.106384   2.674416   2.424897
    13  N    5.583831   5.047859   5.232040   3.642352   3.504263
    14  C    2.517432   3.674472   3.286888   5.309014   4.778168
    15  N    3.607292   4.826214   4.047461   6.425950   5.618639
                    6          7          8          9         10
     6  C    0.000000
     7  C    4.384939   0.000000
     8  N    3.909794   2.494036   0.000000
     9  S    5.076167   1.733444   1.664607   0.000000
    10  C    2.428007   5.116215   5.699860   6.371958   0.000000
    11  N    3.509330   6.107712   6.831389   7.434461   1.162408
    12  C    1.426163   5.736923   5.009263   6.301738   2.836178
    13  N    2.587713   6.864751   5.995430   7.349618   3.609722
    14  C    5.449573   1.416040   3.876636   2.767765   5.646781
    15  N    6.435818   2.578302   5.022796   3.797715   6.306769
                   11         12         13         14         15
    11  N    0.000000
    12  C    3.613393   0.000000
    13  N    4.122555   1.162293   0.000000
    14  C    6.480188   6.800997   7.931563   0.000000
    15  N    7.006418   7.769948   8.891861   1.162367   0.000000
 Symmetry turned off by external request.
 Framework group  C1[X(C8N4S3)]
 Deg. of freedom    39
 Rotational constants (GHZ):      0.7722167      0.3388923      0.2463240
   357 basis functions,   759 primitive gaussians,   387 cartesian basis functions
    62 alpha electrons       62 beta electrons
       nuclear repulsion energy      1166.1400394662 Hartrees.
 IMHF & INEx in M05                  599485                  400514
 NAtoms=   15 NActive=   15 NUniq=   15 SFac= 1.00D+00 NAtFMM=   60 NAOKFM=F Big=F
 PrsmSu:  requested number of processors reduced to:  34 ShMem   1 Linda.
 ExpMin= 3.99D-02 ExpMax= 1.11D+05 ExpMxC= 1.07D+03 IAcc=3 IRadAn=         5 AccDes= 0.00D+00
 Harris functional with IExCor= 1009 and IRadAn=       5 diagonalized for initial guess.
 HarFok:  IExCor= 1009 AccDes= 0.00D+00 IRadAn=         5 IDoV= 1 UseB2=F ITyADJ=14
 ICtDFT=  3500011 ScaDFX=  1.000000  1.000000  1.000000  1.000000
 FoFCou: FMM=F IPFlag=           0 FMFlag=      100000 FMFlg1=           0
         NFxFlg=           0 DoJE=T BraDBF=F KetDBF=T FulRan=T
         wScrn=  0.000000 ICntrl=     500 IOpCl=  0 I1Cent=   200000004 NGrid=           0
         NMat0=    1 NMatS0=      1 NMatT0=    0 NMatD0=    1 NMtDS0=    0 NMtDT0=    0
 Symmetry not used in FoFCou.
 SCF Done:  E(RM05) =  -1724.76147490     A.U. after   17 cycles
            NFock= 17  Conv=0.51D-08     -V/T= 2.0061

 **********************************************************************

            Population analysis using the SCF density.

 **********************************************************************

 Alpha  occ. eigenvalues --  -90.56430 -90.53635 -90.53183 -15.08622 -15.05416
 Alpha  occ. eigenvalues --  -15.04969 -15.04934 -10.89944 -10.89826 -10.89736
 Alpha  occ. eigenvalues --  -10.88752 -10.87414 -10.84946 -10.84331 -10.84311
 Alpha  occ. eigenvalues --   -8.57525  -8.55035  -8.54610  -6.40063  -6.39712
 Alpha  occ. eigenvalues --   -6.39400  -6.37596  -6.37282  -6.37163  -6.36853
 Alpha  occ. eigenvalues --   -6.36821  -6.36393  -1.20533  -1.12895  -1.12139
 Alpha  occ. eigenvalues --   -1.11337  -1.07643  -1.03801  -0.98824  -0.97396
 Alpha  occ. eigenvalues --   -0.88003  -0.84555  -0.82236  -0.73686  -0.71296
 Alpha  occ. eigenvalues --   -0.67838  -0.64612  -0.59530  -0.57258  -0.55386
 Alpha  occ. eigenvalues --   -0.53385  -0.52648  -0.52243  -0.51890  -0.50883
 Alpha  occ. eigenvalues --   -0.50387  -0.49356  -0.48215  -0.46805  -0.46074
 Alpha  occ. eigenvalues --   -0.45933  -0.45296  -0.43720  -0.43113  -0.39488
 Alpha  occ. eigenvalues --   -0.37628  -0.33119
 Alpha virt. eigenvalues --   -0.09329  -0.08269  -0.02099  -0.01263  -0.00505
 Alpha virt. eigenvalues --   -0.00361   0.00153   0.01254   0.02018   0.02227
 Alpha virt. eigenvalues --    0.02393   0.02955   0.03185   0.04003   0.04274
 Alpha virt. eigenvalues --    0.04487   0.05427   0.06004   0.06298   0.07066
 Alpha virt. eigenvalues --    0.07269   0.07525   0.07707   0.08289   0.08492
 Alpha virt. eigenvalues --    0.09373   0.10095   0.10392   0.10523   0.10810
 Alpha virt. eigenvalues --    0.11287   0.11391   0.11977   0.12526   0.13228
 Alpha virt. eigenvalues --    0.13488   0.13934   0.14456   0.15076   0.15190
 Alpha virt. eigenvalues --    0.15904   0.16272   0.16678   0.16811   0.17186
 Alpha virt. eigenvalues --    0.17358   0.17842   0.18615   0.19045   0.19565
 Alpha virt. eigenvalues --    0.19856   0.20234   0.20679   0.20936   0.21264
 Alpha virt. eigenvalues --    0.21871   0.22205   0.22583   0.22818   0.23615
 Alpha virt. eigenvalues --    0.23745   0.24114   0.24372   0.24701   0.25258
 Alpha virt. eigenvalues --    0.25694   0.25845   0.26226   0.26625   0.26750
 Alpha virt. eigenvalues --    0.27064   0.28335   0.29196   0.29664   0.30362
 Alpha virt. eigenvalues --    0.30712   0.32419   0.33453   0.34151   0.34715
 Alpha virt. eigenvalues --    0.34949   0.35471   0.36122   0.36936   0.37595
 Alpha virt. eigenvalues --    0.38151   0.39580   0.40726   0.41167   0.42051
 Alpha virt. eigenvalues --    0.42120   0.43486   0.44134   0.45736   0.45985
 Alpha virt. eigenvalues --    0.46960   0.48547   0.49572   0.50230   0.50590
 Alpha virt. eigenvalues --    0.51527   0.51859   0.53525   0.54166   0.54424
 Alpha virt. eigenvalues --    0.54702   0.55468   0.55731   0.55840   0.56452
 Alpha virt. eigenvalues --    0.57767   0.58138   0.58557   0.59216   0.60312
 Alpha virt. eigenvalues --    0.60555   0.61097   0.61589   0.62106   0.62708
 Alpha virt. eigenvalues --    0.63716   0.64712   0.64956   0.66007   0.66559
 Alpha virt. eigenvalues --    0.67685   0.68192   0.68806   0.70111   0.70417
 Alpha virt. eigenvalues --    0.71048   0.72862   0.73470   0.73850   0.75370
 Alpha virt. eigenvalues --    0.75567   0.76457   0.77062   0.77548   0.77843
 Alpha virt. eigenvalues --    0.78245   0.79255   0.79761   0.79879   0.81109
 Alpha virt. eigenvalues --    0.81534   0.82547   0.83272   0.83958   0.84871
 Alpha virt. eigenvalues --    0.85699   0.85940   0.87122   0.87248   0.88402
 Alpha virt. eigenvalues --    0.88459   0.89344   0.89662   0.89829   0.90735
 Alpha virt. eigenvalues --    0.91172   0.91720   0.92830   0.93721   0.94367
 Alpha virt. eigenvalues --    0.95433   0.95565   0.97327   0.98743   0.99314
 Alpha virt. eigenvalues --    0.99846   1.01203   1.02847   1.03574   1.04752
 Alpha virt. eigenvalues --    1.05758   1.06743   1.08038   1.08541   1.09635
 Alpha virt. eigenvalues --    1.10233   1.11402   1.13197   1.13605   1.14405
 Alpha virt. eigenvalues --    1.15322   1.17103   1.18345   1.20284   1.20629
 Alpha virt. eigenvalues --    1.21609   1.22699   1.23935   1.24217   1.26558
 Alpha virt. eigenvalues --    1.27346   1.29758   1.30248   1.32270   1.34124
 Alpha virt. eigenvalues --    1.37312   1.40084   1.40256   1.41566   1.42727
 Alpha virt. eigenvalues --    1.43614   1.45024   1.46463   1.47273   1.49372
 Alpha virt. eigenvalues --    1.49821   1.50472   1.51641   1.51866   1.52335
 Alpha virt. eigenvalues --    1.53716   1.54192   1.55430   1.56138   1.56449
 Alpha virt. eigenvalues --    1.56788   1.58488   1.59727   1.60388   1.60517
 Alpha virt. eigenvalues --    1.62128   1.63280   1.64917   1.66027   1.67545
 Alpha virt. eigenvalues --    1.68614   1.69175   1.70470   1.71324   1.74152
 Alpha virt. eigenvalues --    1.76825   1.77079   1.79014   1.79378   1.81041
 Alpha virt. eigenvalues --    1.82957   1.85918   1.88150   1.89703   1.90608
 Alpha virt. eigenvalues --    1.91368   1.94485   1.95005   1.97393   2.00538
 Alpha virt. eigenvalues --    2.00827   2.05450   2.07035   2.08349   2.08471
 Alpha virt. eigenvalues --    2.10897   2.13936   2.18607   2.20232   2.24594
 Alpha virt. eigenvalues --    2.27649   2.30685   2.37025   2.37401   2.38002
 Alpha virt. eigenvalues --    2.38280   2.39370   2.39931   2.40470   2.42148
 Alpha virt. eigenvalues --    2.42559   2.43755   2.45056   2.51021   2.54995
 Alpha virt. eigenvalues --    2.61163   2.64123   2.68330   2.71899   2.73263
 Alpha virt. eigenvalues --    2.76308   2.78779   2.81841   2.94680   2.99730
 Alpha virt. eigenvalues --    3.01875   3.09943   3.11451   3.15938   3.17850
 Alpha virt. eigenvalues --    3.24294   3.27128   3.35295   3.59304   3.74892
          Condensed to atoms (all electrons):
 Mulliken charges:
               1
     1  C    0.620019
     2  C   -0.108474
     3  S    0.375106
     4  S    0.296103
     5  C    1.039770
     6  C    1.131467
     7  C    0.787231
     8  N   -1.083491
     9  S    0.556952
    10  C   -1.129851
    11  N   -0.167943
    12  C   -1.100316
    13  N   -0.180457
    14  C   -0.853052
    15  N   -0.183063
 Sum of Mulliken charges =  -0.00000
 Mulliken charges with hydrogens summed into heavy atoms:
               1
     1  C    0.620019
     2  C   -0.108474
     3  S    0.375106
     4  S    0.296103
     5  C    1.039770
     6  C    1.131467
     7  C    0.787231
     8  N   -1.083491
     9  S    0.556952
    10  C   -1.129851
    11  N   -0.167943
    12  C   -1.100316
    13  N   -0.180457
    14  C   -0.853052
    15  N   -0.183063
 Electronic spatial extent (au):  <R**2>=          17716.5517
 Charge=             -0.0000 electrons
 Dipole moment (field-independent basis, Debye):
    X=             -1.9293    Y=             -2.9131    Z=              3.1215  Tot=              4.6854

 Test job not archived.
 1\1\GINC-CHIMERA-NODE11\SP\RM05\Gen\C8N4S3\CONNORNM\19-Jan-2019\0\\#T 
 M05/Gen test Massage SCF=(fermi,maxcyc=60)\\M05 opt\\0,1\C,0,-0.763142
 7,0.07262156,6.24182607\C,0,-0.30048328,-1.25860651,6.04281666\S,0,0.2
 2618272,1.51886317,6.10715225\S,0,1.35981825,-1.67501504,5.59049917\C,
 0,1.35867049,1.01734365,4.83826624\C,0,1.80736408,-0.24982936,4.636794
 94\C,0,-2.08862182,0.05067349,6.62643836\N,0,-1.15692852,-2.23060009,6
 .24178921\S,0,-2.61731341,-1.59702734,6.72838804\C,0,1.81765454,2.1029
 1681,4.03704578\N,0,2.18118864,3.02299514,3.42672468\C,0,2.7576757,-0.
 53922039,3.61351463\N,0,3.55266991,-0.8158374,2.81202017\C,0,-2.932329
 9,1.14487745,6.9363461\N,0,-3.63632847,2.03048616,7.2031403\\Version=A
 S64L-G09RevD.01\HF=-1724.7614749\RMSD=5.129e-09\Dipole=-0.7590609,-1.1
 461162,1.2281038\Quadrupole=-10.170277,-9.0794775,19.2497545,4.4556462
 ,2.7626771,-11.8839866\PG=C01 [X(C8N4S3)]\\@


 IN NATURE THERE ARE NEITHER REWARDS OR
 PUNISHMENTS -- THERE ARE CONSEQUENCES.

                            -- ROBERT GREEN INGERSOLL
 Job cpu time:       0 days  1 hours 37 minutes  2.8 seconds.
 File lengths (MBytes):  RWF=     58 Int=      0 D2E=      0 Chk=      6 Scr=      1
 Normal termination of Gaussian 09 at Sat Jan 19 11:06:37 2019.
