 Entering Gaussian System, Link 0=/data/szalewicgrp/connornm/opt/Gaussian/g09-M05-par/g09/g09
 AtFile(1): blind-aug.gbs
 Initial command:
 /data/szalewicgrp/connornm/opt/Gaussian/g09-M05-par/g09/l1.exe "/scratch/local/Gau-29236.inp" -scrdir="/scratch/local/"
 Entering Link 1 = /data/szalewicgrp/connornm/opt/Gaussian/g09-M05-par/g09/l1.exe PID=     29237.
  
 Copyright (c) 1988,1990,1992,1993,1995,1998,2003,2009,2013,
            Gaussian, Inc.  All Rights Reserved.
  
 This is part of the Gaussian(R) 09 program.  It is based on
 the Gaussian(R) 03 system (copyright 2003, Gaussian, Inc.),
 the Gaussian(R) 98 system (copyright 1998, Gaussian, Inc.),
 the Gaussian(R) 94 system (copyright 1995, Gaussian, Inc.),
 the Gaussian 92(TM) system (copyright 1992, Gaussian, Inc.),
 the Gaussian 90(TM) system (copyright 1990, Gaussian, Inc.),
 the Gaussian 88(TM) system (copyright 1988, Gaussian, Inc.),
 the Gaussian 86(TM) system (copyright 1986, Carnegie Mellon
 University), and the Gaussian 82(TM) system (copyright 1983,
 Carnegie Mellon University). Gaussian is a federally registered
 trademark of Gaussian, Inc.
  
 This software contains proprietary and confidential information,
 including trade secrets, belonging to Gaussian, Inc.
  
 This software is provided under written license and may be
 used, copied, transmitted, or stored only in accord with that
 written license.
  
 The following legend is applicable only to US Government
 contracts under FAR:
  
                    RESTRICTED RIGHTS LEGEND
  
 Use, reproduction and disclosure by the US Government is
 subject to restrictions as set forth in subparagraphs (a)
 and (c) of the Commercial Computer Software - Restricted
 Rights clause in FAR 52.227-19.
  
 Gaussian, Inc.
 340 Quinnipiac St., Bldg. 40, Wallingford CT 06492
  
  
 ---------------------------------------------------------------
 Warning -- This program may not be used in any manner that
 competes with the business of Gaussian, Inc. or will provide
 assistance to any competitor of Gaussian, Inc.  The licensee
 of this program is prohibited from giving any competitor of
 Gaussian, Inc. access to this program.  By using this program,
 the user acknowledges that Gaussian, Inc. is engaged in the
 business of creating and licensing software in the field of
 computational chemistry and represents and warrants to the
 licensee that it is not a competitor of Gaussian, Inc. and that
 it will not use this program in any manner prohibited above.
 ---------------------------------------------------------------
  

 Cite this work as:
 Gaussian 09, Revision D.01,
 M. J. Frisch, G. W. Trucks, H. B. Schlegel, G. E. Scuseria, 
 M. A. Robb, J. R. Cheeseman, G. Scalmani, V. Barone, B. Mennucci, 
 G. A. Petersson, H. Nakatsuji, M. Caricato, X. Li, H. P. Hratchian, 
 A. F. Izmaylov, J. Bloino, G. Zheng, J. L. Sonnenberg, M. Hada, 
 M. Ehara, K. Toyota, R. Fukuda, J. Hasegawa, M. Ishida, T. Nakajima, 
 Y. Honda, O. Kitao, H. Nakai, T. Vreven, J. A. Montgomery, Jr., 
 J. E. Peralta, F. Ogliaro, M. Bearpark, J. J. Heyd, E. Brothers, 
 K. N. Kudin, V. N. Staroverov, T. Keith, R. Kobayashi, J. Normand, 
 K. Raghavachari, A. Rendell, J. C. Burant, S. S. Iyengar, J. Tomasi, 
 M. Cossi, N. Rega, J. M. Millam, M. Klene, J. E. Knox, J. B. Cross, 
 V. Bakken, C. Adamo, J. Jaramillo, R. Gomperts, R. E. Stratmann, 
 O. Yazyev, A. J. Austin, R. Cammi, C. Pomelli, J. W. Ochterski, 
 R. L. Martin, K. Morokuma, V. G. Zakrzewski, G. A. Voth, 
 P. Salvador, J. J. Dannenberg, S. Dapprich, A. D. Daniels, 
 O. Farkas, J. B. Foresman, J. V. Ortiz, J. Cioslowski, 
 and D. J. Fox, Gaussian, Inc., Wallingford CT, 2013.
 
 ******************************************
 Gaussian 09:  AS64L-G09RevD.01 24-Apr-2013
                19-Jan-2019 
 ******************************************
 %Chk=BLIND00740_mB
 %Mem=1GB
 %NProcShared=48
 Will use up to   48 processors via shared memory.
 ---------------------------------------------
 #T M05/Gen test Massage SCF=(fermi,maxcyc=60)
 ---------------------------------------------
 -------
 M05 opt
 -------
 Symbolic Z-matrix:
 Charge =  0 Multiplicity = 1
 6                    -0.21683  -0.91092   6.33862 
 6                     0.10898  -0.96374   4.95411 
 16                    0.41868   0.26064   7.48409 
 16                    1.19605   0.1765    4.1462 
 6                     0.60183   1.67481   6.43019 
 6                     0.91148   1.6382    5.10716 
 6                    -1.05141  -1.96251   6.65946 
 7                    -0.40751  -1.94121   4.25007 
 16                   -1.32556  -2.91657   5.23839 
 6                     0.43547   2.91125   7.11912 
 7                     0.31484   3.89362   7.72871 
 6                     1.08264   2.84005   4.35868 
 7                     1.26009   3.79294   3.71725 
 6                    -1.60438  -2.29287   7.92051 
 7                    -2.05941  -2.5842    8.94967 
 
                    Distance matrix (angstroms):
                    1          2          3          4          5
     1  C    0.000000
     2  C    1.423315   0.000000
     3  S    1.757418   2.827694   0.000000
     4  S    2.825849   1.770477   3.428253   0.000000
     5  C    2.713774   3.063280   1.773167   2.795470   0.000000
     6  C    3.047557   2.727187   2.791121   1.772288   1.359281
     7  C    1.380327   2.291783   2.789903   3.992857   4.001979
     8  N    2.336642   1.310672   3.998700   2.658358   4.341342
     9  S    2.542129   2.439721   4.263822   4.137445   5.120151
    10  C    3.955208   4.450782   2.675676   4.110426   1.425163
    11  N    5.029770   5.597745   3.642685   5.237162   2.586817
    12  C    4.436049   3.971317   4.106384   2.674416   2.424897
    13  N    5.583831   5.047859   5.232040   3.642352   3.504263
    14  C    2.517432   3.674472   3.286888   5.309014   4.778168
    15  N    3.607292   4.826214   4.047461   6.425950   5.618639
                    6          7          8          9         10
     6  C    0.000000
     7  C    4.384939   0.000000
     8  N    3.909794   2.494036   0.000000
     9  S    5.076167   1.733444   1.664607   0.000000
    10  C    2.428007   5.116215   5.699860   6.371958   0.000000
    11  N    3.509330   6.107712   6.831389   7.434461   1.162408
    12  C    1.426163   5.736923   5.009263   6.301738   2.836178
    13  N    2.587713   6.864751   5.995430   7.349618   3.609722
    14  C    5.449573   1.416040   3.876636   2.767765   5.646781
    15  N    6.435818   2.578302   5.022796   3.797715   6.306769
                   11         12         13         14         15
    11  N    0.000000
    12  C    3.613393   0.000000
    13  N    4.122555   1.162293   0.000000
    14  C    6.480188   6.800997   7.931563   0.000000
    15  N    7.006418   7.769948   8.891861   1.162367   0.000000
 Symmetry turned off by external request.
 Framework group  C1[X(C8N4S3)]
 Deg. of freedom    39
 Rotational constants (GHZ):      0.7722167      0.3388923      0.2463240
   357 basis functions,   759 primitive gaussians,   387 cartesian basis functions
    62 alpha electrons       62 beta electrons
       nuclear repulsion energy      1166.1400393699 Hartrees.
 IMHF & INEx in M05                  599485                  400514
 NAtoms=   15 NActive=   15 NUniq=   15 SFac= 1.00D+00 NAtFMM=   60 NAOKFM=F Big=F
 PrsmSu:  requested number of processors reduced to:  34 ShMem   1 Linda.
 ExpMin= 3.99D-02 ExpMax= 1.11D+05 ExpMxC= 1.07D+03 IAcc=3 IRadAn=         5 AccDes= 0.00D+00
 Harris functional with IExCor= 1009 and IRadAn=       5 diagonalized for initial guess.
 HarFok:  IExCor= 1009 AccDes= 0.00D+00 IRadAn=         5 IDoV= 1 UseB2=F ITyADJ=14
 ICtDFT=  3500011 ScaDFX=  1.000000  1.000000  1.000000  1.000000
 FoFCou: FMM=F IPFlag=           0 FMFlag=      100000 FMFlg1=           0
         NFxFlg=           0 DoJE=T BraDBF=F KetDBF=T FulRan=T
         wScrn=  0.000000 ICntrl=     500 IOpCl=  0 I1Cent=   200000004 NGrid=           0
         NMat0=    1 NMatS0=      1 NMatT0=    0 NMatD0=    1 NMtDS0=    0 NMtDT0=    0
 Symmetry not used in FoFCou.
 SCF Done:  E(RM05) =  -1724.76147447     A.U. after   17 cycles
            NFock= 17  Conv=0.52D-08     -V/T= 2.0061

 **********************************************************************

            Population analysis using the SCF density.

 **********************************************************************

 Alpha  occ. eigenvalues --  -90.56430 -90.53636 -90.53181 -15.08621 -15.05416
 Alpha  occ. eigenvalues --  -15.04969 -15.04934 -10.89945 -10.89827 -10.89735
 Alpha  occ. eigenvalues --  -10.88752 -10.87413 -10.84946 -10.84332 -10.84311
 Alpha  occ. eigenvalues --   -8.57525  -8.55036  -8.54608  -6.40063  -6.39712
 Alpha  occ. eigenvalues --   -6.39400  -6.37597  -6.37283  -6.37162  -6.36852
 Alpha  occ. eigenvalues --   -6.36822  -6.36392  -1.20533  -1.12896  -1.12139
 Alpha  occ. eigenvalues --   -1.11338  -1.07644  -1.03801  -0.98824  -0.97396
 Alpha  occ. eigenvalues --   -0.88003  -0.84555  -0.82236  -0.73687  -0.71296
 Alpha  occ. eigenvalues --   -0.67838  -0.64612  -0.59530  -0.57258  -0.55386
 Alpha  occ. eigenvalues --   -0.53385  -0.52647  -0.52243  -0.51890  -0.50883
 Alpha  occ. eigenvalues --   -0.50387  -0.49356  -0.48216  -0.46805  -0.46075
 Alpha  occ. eigenvalues --   -0.45933  -0.45296  -0.43720  -0.43113  -0.39488
 Alpha  occ. eigenvalues --   -0.37627  -0.33119
 Alpha virt. eigenvalues --   -0.09329  -0.08268  -0.02099  -0.01262  -0.00507
 Alpha virt. eigenvalues --   -0.00361   0.00153   0.01254   0.02022   0.02227
 Alpha virt. eigenvalues --    0.02393   0.02957   0.03187   0.04004   0.04276
 Alpha virt. eigenvalues --    0.04488   0.05427   0.06008   0.06299   0.07067
 Alpha virt. eigenvalues --    0.07271   0.07525   0.07707   0.08288   0.08495
 Alpha virt. eigenvalues --    0.09373   0.10093   0.10389   0.10527   0.10805
 Alpha virt. eigenvalues --    0.11287   0.11392   0.11976   0.12527   0.13226
 Alpha virt. eigenvalues --    0.13491   0.13933   0.14453   0.15079   0.15192
 Alpha virt. eigenvalues --    0.15900   0.16270   0.16679   0.16810   0.17185
 Alpha virt. eigenvalues --    0.17362   0.17843   0.18622   0.19053   0.19570
 Alpha virt. eigenvalues --    0.19860   0.20242   0.20687   0.20952   0.21268
 Alpha virt. eigenvalues --    0.21879   0.22207   0.22583   0.22816   0.23612
 Alpha virt. eigenvalues --    0.23746   0.24105   0.24372   0.24702   0.25259
 Alpha virt. eigenvalues --    0.25693   0.25853   0.26223   0.26625   0.26751
 Alpha virt. eigenvalues --    0.27060   0.28335   0.29196   0.29662   0.30369
 Alpha virt. eigenvalues --    0.30711   0.32421   0.33456   0.34154   0.34719
 Alpha virt. eigenvalues --    0.34944   0.35472   0.36119   0.36932   0.37594
 Alpha virt. eigenvalues --    0.38151   0.39571   0.40728   0.41169   0.42050
 Alpha virt. eigenvalues --    0.42124   0.43484   0.44139   0.45741   0.45972
 Alpha virt. eigenvalues --    0.46954   0.48540   0.49571   0.50224   0.50590
 Alpha virt. eigenvalues --    0.51525   0.51858   0.53528   0.54162   0.54424
 Alpha virt. eigenvalues --    0.54699   0.55461   0.55732   0.55838   0.56447
 Alpha virt. eigenvalues --    0.57764   0.58132   0.58553   0.59211   0.60311
 Alpha virt. eigenvalues --    0.60552   0.61098   0.61590   0.62104   0.62710
 Alpha virt. eigenvalues --    0.63711   0.64717   0.64951   0.66007   0.66553
 Alpha virt. eigenvalues --    0.67688   0.68188   0.68806   0.70108   0.70413
 Alpha virt. eigenvalues --    0.71048   0.72859   0.73467   0.73856   0.75373
 Alpha virt. eigenvalues --    0.75568   0.76456   0.77061   0.77547   0.77840
 Alpha virt. eigenvalues --    0.78243   0.79254   0.79760   0.79881   0.81110
 Alpha virt. eigenvalues --    0.81534   0.82545   0.83282   0.83955   0.84871
 Alpha virt. eigenvalues --    0.85699   0.85939   0.87123   0.87248   0.88404
 Alpha virt. eigenvalues --    0.88458   0.89344   0.89667   0.89830   0.90732
 Alpha virt. eigenvalues --    0.91168   0.91725   0.92832   0.93724   0.94370
 Alpha virt. eigenvalues --    0.95434   0.95568   0.97323   0.98744   0.99313
 Alpha virt. eigenvalues --    0.99842   1.01205   1.02845   1.03576   1.04752
 Alpha virt. eigenvalues --    1.05757   1.06746   1.08040   1.08540   1.09637
 Alpha virt. eigenvalues --    1.10231   1.11403   1.13194   1.13607   1.14402
 Alpha virt. eigenvalues --    1.15321   1.17100   1.18344   1.20287   1.20630
 Alpha virt. eigenvalues --    1.21608   1.22702   1.23937   1.24222   1.26559
 Alpha virt. eigenvalues --    1.27344   1.29758   1.30250   1.32273   1.34124
 Alpha virt. eigenvalues --    1.37312   1.40080   1.40256   1.41566   1.42728
 Alpha virt. eigenvalues --    1.43617   1.45023   1.46460   1.47274   1.49371
 Alpha virt. eigenvalues --    1.49823   1.50475   1.51644   1.51866   1.52333
 Alpha virt. eigenvalues --    1.53716   1.54192   1.55429   1.56136   1.56448
 Alpha virt. eigenvalues --    1.56789   1.58484   1.59725   1.60392   1.60514
 Alpha virt. eigenvalues --    1.62131   1.63283   1.64922   1.66028   1.67545
 Alpha virt. eigenvalues --    1.68612   1.69173   1.70469   1.71326   1.74152
 Alpha virt. eigenvalues --    1.76827   1.77079   1.79017   1.79377   1.81040
 Alpha virt. eigenvalues --    1.82959   1.85918   1.88150   1.89703   1.90608
 Alpha virt. eigenvalues --    1.91366   1.94484   1.95007   1.97395   2.00539
 Alpha virt. eigenvalues --    2.00826   2.05448   2.07036   2.08349   2.08474
 Alpha virt. eigenvalues --    2.10897   2.13937   2.18604   2.20236   2.24596
 Alpha virt. eigenvalues --    2.27648   2.30685   2.37026   2.37401   2.38002
 Alpha virt. eigenvalues --    2.38279   2.39369   2.39930   2.40470   2.42150
 Alpha virt. eigenvalues --    2.42561   2.43756   2.45058   2.51019   2.54995
 Alpha virt. eigenvalues --    2.61160   2.64120   2.68329   2.71898   2.73264
 Alpha virt. eigenvalues --    2.76309   2.78780   2.81841   2.94681   2.99731
 Alpha virt. eigenvalues --    3.01879   3.09945   3.11453   3.15940   3.17851
 Alpha virt. eigenvalues --    3.24292   3.27128   3.35295   3.59312   3.74892
          Condensed to atoms (all electrons):
 Mulliken charges:
               1
     1  C    0.620500
     2  C   -0.109810
     3  S    0.373988
     4  S    0.297129
     5  C    1.041141
     6  C    1.130658
     7  C    0.787564
     8  N   -1.083201
     9  S    0.556952
    10  C   -1.130796
    11  N   -0.167786
    12  C   -1.099866
    13  N   -0.180286
    14  C   -0.853304
    15  N   -0.182882
 Sum of Mulliken charges =  -0.00000
 Mulliken charges with hydrogens summed into heavy atoms:
               1
     1  C    0.620500
     2  C   -0.109810
     3  S    0.373988
     4  S    0.297129
     5  C    1.041141
     6  C    1.130658
     7  C    0.787564
     8  N   -1.083201
     9  S    0.556952
    10  C   -1.130796
    11  N   -0.167786
    12  C   -1.099866
    13  N   -0.180286
    14  C   -0.853304
    15  N   -0.182882
 Electronic spatial extent (au):  <R**2>=          19615.8128
 Charge=             -0.0000 electrons
 Dipole moment (field-independent basis, Debye):
    X=              0.4634    Y=             -4.4373    Z=             -1.4295  Tot=              4.6848

 Test job not archived.
 1\1\GINC-CHIMERA-NODE41\SP\RM05\Gen\C8N4S3\CONNORNM\19-Jan-2019\0\\#T 
 M05/Gen test Massage SCF=(fermi,maxcyc=60)\\M05 opt\\0,1\C,0,-0.216826
 35,-0.91091966,6.33862179\C,0,0.10898117,-0.96374188,4.9541053\S,0,0.4
 18678,0.26063811,7.48409255\S,0,1.19605275,0.17650046,4.14619991\C,0,0
 .60183207,1.67480735,6.43019407\C,0,0.91147595,1.6382047,5.1071578\C,0
 ,-1.05140895,-1.96250859,6.65945795\N,0,-0.40750604,-1.94120537,4.2500
 697\S,0,-1.32555731,-2.91656602,5.23838664\C,0,0.4354733,2.91125215,7.
 11911981\N,0,0.3148417,3.89361664,7.72871068\C,0,1.08263762,2.84004906
 ,4.35868219\N,0,1.26008871,3.79293934,3.71724836\C,0,-1.60437654,-2.29
 287303,7.92051093\N,0,-2.05941426,-2.58419646,8.94966944\\Version=AS64
 L-G09RevD.01\HF=-1724.7614745\RMSD=5.167e-09\Dipole=0.1823334,-1.74575
 14,-0.5623936\Quadrupole=13.7590367,-2.6881098,-11.0709268,-3.1889707,
 7.7560266,-14.7714666\PG=C01 [X(C8N4S3)]\\@


 THE NUMBERS ARE MEANINGLESS, BUT THE TRENDS ARE IMPORTANT.
     -- LARRY BURGGRAF
 Job cpu time:       0 days  1 hours 38 minutes 21.1 seconds.
 File lengths (MBytes):  RWF=     58 Int=      0 D2E=      0 Chk=      6 Scr=      1
 Normal termination of Gaussian 09 at Sat Jan 19 10:51:05 2019.
