 Entering Gaussian System, Link 0=/data/szalewicgrp/connornm/opt/Gaussian/g09-M05-par/g09/g09
 AtFile(1): blind-aug.gbs
 Initial command:
 /data/szalewicgrp/connornm/opt/Gaussian/g09-M05-par/g09/l1.exe "/scratch/local/Gau-34554.inp" -scrdir="/scratch/local/"
 Entering Link 1 = /data/szalewicgrp/connornm/opt/Gaussian/g09-M05-par/g09/l1.exe PID=     34555.
  
 Copyright (c) 1988,1990,1992,1993,1995,1998,2003,2009,2013,
            Gaussian, Inc.  All Rights Reserved.
  
 This is part of the Gaussian(R) 09 program.  It is based on
 the Gaussian(R) 03 system (copyright 2003, Gaussian, Inc.),
 the Gaussian(R) 98 system (copyright 1998, Gaussian, Inc.),
 the Gaussian(R) 94 system (copyright 1995, Gaussian, Inc.),
 the Gaussian 92(TM) system (copyright 1992, Gaussian, Inc.),
 the Gaussian 90(TM) system (copyright 1990, Gaussian, Inc.),
 the Gaussian 88(TM) system (copyright 1988, Gaussian, Inc.),
 the Gaussian 86(TM) system (copyright 1986, Carnegie Mellon
 University), and the Gaussian 82(TM) system (copyright 1983,
 Carnegie Mellon University). Gaussian is a federally registered
 trademark of Gaussian, Inc.
  
 This software contains proprietary and confidential information,
 including trade secrets, belonging to Gaussian, Inc.
  
 This software is provided under written license and may be
 used, copied, transmitted, or stored only in accord with that
 written license.
  
 The following legend is applicable only to US Government
 contracts under FAR:
  
                    RESTRICTED RIGHTS LEGEND
  
 Use, reproduction and disclosure by the US Government is
 subject to restrictions as set forth in subparagraphs (a)
 and (c) of the Commercial Computer Software - Restricted
 Rights clause in FAR 52.227-19.
  
 Gaussian, Inc.
 340 Quinnipiac St., Bldg. 40, Wallingford CT 06492
  
  
 ---------------------------------------------------------------
 Warning -- This program may not be used in any manner that
 competes with the business of Gaussian, Inc. or will provide
 assistance to any competitor of Gaussian, Inc.  The licensee
 of this program is prohibited from giving any competitor of
 Gaussian, Inc. access to this program.  By using this program,
 the user acknowledges that Gaussian, Inc. is engaged in the
 business of creating and licensing software in the field of
 computational chemistry and represents and warrants to the
 licensee that it is not a competitor of Gaussian, Inc. and that
 it will not use this program in any manner prohibited above.
 ---------------------------------------------------------------
  

 Cite this work as:
 Gaussian 09, Revision D.01,
 M. J. Frisch, G. W. Trucks, H. B. Schlegel, G. E. Scuseria, 
 M. A. Robb, J. R. Cheeseman, G. Scalmani, V. Barone, B. Mennucci, 
 G. A. Petersson, H. Nakatsuji, M. Caricato, X. Li, H. P. Hratchian, 
 A. F. Izmaylov, J. Bloino, G. Zheng, J. L. Sonnenberg, M. Hada, 
 M. Ehara, K. Toyota, R. Fukuda, J. Hasegawa, M. Ishida, T. Nakajima, 
 Y. Honda, O. Kitao, H. Nakai, T. Vreven, J. A. Montgomery, Jr., 
 J. E. Peralta, F. Ogliaro, M. Bearpark, J. J. Heyd, E. Brothers, 
 K. N. Kudin, V. N. Staroverov, T. Keith, R. Kobayashi, J. Normand, 
 K. Raghavachari, A. Rendell, J. C. Burant, S. S. Iyengar, J. Tomasi, 
 M. Cossi, N. Rega, J. M. Millam, M. Klene, J. E. Knox, J. B. Cross, 
 V. Bakken, C. Adamo, J. Jaramillo, R. Gomperts, R. E. Stratmann, 
 O. Yazyev, A. J. Austin, R. Cammi, C. Pomelli, J. W. Ochterski, 
 R. L. Martin, K. Morokuma, V. G. Zakrzewski, G. A. Voth, 
 P. Salvador, J. J. Dannenberg, S. Dapprich, A. D. Daniels, 
 O. Farkas, J. B. Foresman, J. V. Ortiz, J. Cioslowski, 
 and D. J. Fox, Gaussian, Inc., Wallingford CT, 2013.
 
 ******************************************
 Gaussian 09:  AS64L-G09RevD.01 24-Apr-2013
                19-Jan-2019 
 ******************************************
 %Chk=BLIND02052
 %Mem=1GB
 %NProcShared=48
 Will use up to   48 processors via shared memory.
 ---------------------------------------------
 #T M05/Gen test Massage SCF=(fermi,maxcyc=60)
 ---------------------------------------------
 -------
 M05 opt
 -------
 Symbolic Z-matrix:
 Charge =  0 Multiplicity = 1
 6                     0.44441   0.90896   0.13193 
 6                     1.14433   0.05487  -0.76611 
 16                   -0.52245   0.36878   1.49645 
 16                    1.12734  -1.71297  -0.67091 
 6                    -1.145    -1.16576   0.86262 
 6                    -0.48776  -1.98973   0.00427 
 6                     0.69832   2.22735  -0.18848 
 7                     1.86999   0.62405  -1.6974 
 16                    1.78649   2.27879  -1.53684 
 6                    -2.42814  -1.50587   1.38123 
 7                    -3.46332  -1.75156   1.84946 
 6                    -1.06024  -3.22895  -0.40867 
 7                    -1.47509  -4.26013  -0.74852 
 6                     0.21621   3.39578   0.44989 
 7                    -0.1625    4.36532   0.96725 
 6                     0.47806   0.19198   10.19857 
 6                     1.10459   0.78492   11.33069 
 16                   -0.43341  -1.31049   10.21729 
 16                    1.03873   0.11229   12.9671 
 6                    -1.13411  -1.24183   11.84469 
 6                    -0.54722  -0.67805   12.93343 
 6                     0.75517   0.93821   9.0709 
 7                     1.79843   1.87893   11.13169 
 16                    1.77369   2.26915   9.51366 
 6                    -2.39867  -1.89253   11.93724 
 7                    -3.41541  -2.45506   11.9685 
 6                    -1.17761  -0.71861   14.21207 
 7                    -1.64056  -0.75354   15.27761 
 6                     0.34228   0.70214   7.73712 
 7                     0.02033   0.51874   6.63539 
 
                    Distance matrix (angstroms):
                    1          2          3          4          5
     1  C    0.000000
     2  C    1.423315   0.000000
     3  S    1.757418   2.827694   0.000000
     4  S    2.825849   1.770477   3.428253   0.000000
     5  C    2.713774   3.063280   1.773167   2.795470   0.000000
     6  C    3.047557   2.727187   2.791121   1.772288   1.359281
     7  C    1.380327   2.291783   2.789903   3.992857   4.001979
     8  N    2.336642   1.310672   3.998700   2.658358   4.341342
     9  S    2.542129   2.439721   4.263822   4.137445   5.120151
    10  C    3.955208   4.450782   2.675676   4.110426   1.425163
    11  N    5.029770   5.597745   3.642685   5.237162   2.586817
    12  C    4.436049   3.971317   4.106384   2.674416   2.424897
    13  N    5.583831   5.047859   5.232040   3.642352   3.504263
    14  C    2.517432   3.674472   3.286888   5.309014   4.778168
    15  N    3.607292   4.826214   4.047461   6.425950   5.618639
    16  C   10.092197  10.985762   8.761236  11.054229   9.572763
    17  C   11.218890  12.118879   9.976614  12.258810  10.883309
    18  S   10.363924  11.179825   8.881494  11.006851   9.382813
    19  S   12.873591  13.733732  11.579242  13.759890  12.366101
    20  C   12.012754  12.880408  10.490675  12.726990  10.982339
    21  C   12.937556  13.823023  11.484820  13.746027  12.095443
    22  C    8.944414   9.884253   7.702523  10.102971   8.684076
    23  N   11.125148  12.054573  10.025216  12.355300  11.108004
    24  S    9.572560  10.534363   8.553323  10.954471   9.754888
    25  C   12.461807  13.331173  10.846372  13.093139  11.169022
    26  N   12.896482  13.757226  11.225294  13.451467  11.408669
    27  C   14.266397  15.176804  12.778833  15.093192  13.356973
    28  N   15.378639  16.303681  13.871920  16.215331  14.429395
    29  C    7.608683   8.565461   6.309110   8.783165   7.277350
    30  N    6.528942   7.500716   5.169703   7.719324   6.125391
                    6          7          8          9         10
     6  C    0.000000
     7  C    4.384939   0.000000
     8  N    3.909794   2.494036   0.000000
     9  S    5.076167   1.733444   1.664607   0.000000
    10  C    2.428007   5.116215   5.699860   6.371958   0.000000
    11  N    3.509330   6.107712   6.831389   7.434461   1.162408
    12  C    1.426163   5.736923   5.009263   6.301738   2.836178
    13  N    2.587713   6.864751   5.995430   7.349618   3.609722
    14  C    5.449573   1.416040   3.876636   2.767765   5.646781
    15  N    6.435818   2.578302   5.022796   3.797715   6.306769
    16  C   10.469785  10.586891  11.984923  11.991110   9.437919
    17  C   11.769541  11.616245  13.051551  12.971895  10.803697
    18  S   10.235724  11.048858  12.288529  12.488812   9.060529
    19  S   13.220569  13.328868  14.696953  14.683905  12.201232
    20  C   11.881607  12.656629  13.996225  14.141780  10.546484
    21  C   12.995661  13.497314  14.886225  14.952522  11.733570
    22  C    9.608402   9.348867  10.830411  10.741736   8.673988
    23  N   12.000526  11.378843  12.890520  12.674847  11.153133
    24  S   10.662112   9.761649  11.331528  11.050511   9.901648
    25  C   12.085391  13.175654  14.507169  14.712790  10.563133
    26  N   12.326008  13.661629  14.972418  15.227061  10.675491
    27  C   14.281212  14.818018  16.254284  16.303323  12.915653
    28  N   15.366584  15.923446  17.388867  17.425998  13.939002
    29  C    8.229949   8.078875   9.557727   9.517240   7.276535
    30  N    7.107903   7.067129   8.536261   8.544148   6.140058
                   11         12         13         14         15
    11  N    0.000000
    12  C    3.613393   0.000000
    13  N    4.122555   1.162293   0.000000
    14  C    6.480188   6.800997   7.931563   0.000000
    15  N    7.006418   7.769948   8.891861   1.162367   0.000000
    16  C    9.435012  11.250899  11.978098  10.264977  10.151082
    17  C   10.825586  12.594061  13.342214  11.224869  11.037470
    18  S    8.910413  10.815935  11.403264  10.861540  10.855940
    19  S   12.138541  13.945635  14.613536  12.966816  12.787790
    20  C   10.275681  12.413659  12.954353  12.376276  12.276107
    21  C   11.511320  13.593454  14.173496  13.153623  12.991273
    22  C    8.785194  10.513000  11.332155   8.980642   8.846262
    23  N   11.270591  12.939955  13.767475  10.904364  10.646281
    24  S   10.115941  11.692431  12.589614   9.265362   9.010209
    25  C   10.144781  12.489950  12.937809  12.913673  12.825822
    26  N   10.143579  12.622999  12.990214  13.420115  13.346407
    27  C   12.614493  14.835145  15.376928  14.431508  14.223289
    28  N   13.587996  15.890997  16.406104  15.508892  15.270029
    29  C    7.427501   9.152840   9.996652   7.770153   7.713936
    30  N    6.339967   8.051809   8.921658   6.824674   6.852551
                   16         17         18         19         20
    16  C    0.000000
    17  C    1.423315   0.000000
    18  S    1.757418   2.827694   0.000000
    19  S    2.825849   1.770477   3.428253   0.000000
    20  C    2.713774   3.063280   1.773167   2.795470   0.000000
    21  C    3.047557   2.727187   2.791121   1.772288   1.359281
    22  C    1.380327   2.291783   2.789903   3.992857   4.001979
    23  N    2.336642   1.310672   3.998700   2.658358   4.341342
    24  S    2.542129   2.439721   4.263822   4.137445   5.120151
    25  C    3.955208   4.450782   2.675676   4.110426   1.425163
    26  N    5.029770   5.597745   3.642685   5.237162   2.586817
    27  C    4.436049   3.971317   4.106384   2.674416   2.424897
    28  N    5.583831   5.047859   5.232040   3.642352   3.504263
    29  C    2.517432   3.674472   3.286888   5.309014   4.778168
    30  N    3.607292   4.826214   4.047461   6.425950   5.618639
                   21         22         23         24         25
    21  C    0.000000
    22  C    4.384939   0.000000
    23  N    3.909794   2.494036   0.000000
    24  S    5.076167   1.733444   1.664607   0.000000
    25  C    2.428007   5.116215   5.699860   6.371958   0.000000
    26  N    3.509330   6.107712   6.831389   7.434461   1.162408
    27  C    1.426163   5.736923   5.009263   6.301738   2.836178
    28  N    2.587713   6.864751   5.995430   7.349618   3.609722
    29  C    5.449573   1.416040   3.876636   2.767765   5.646781
    30  N    6.435818   2.578302   5.022796   3.797715   6.306769
                   26         27         28         29         30
    26  N    0.000000
    27  C    3.613393   0.000000
    28  N    4.122555   1.162293   0.000000
    29  C    6.480188   6.800997   7.931563   0.000000
    30  N    7.006418   7.769948   8.891861   1.162367   0.000000
 Symmetry turned off by external request.
 Framework group  C1[X(C16N8S6)]
 Deg. of freedom    84
 Rotational constants (GHZ):      0.1848491      0.0294491      0.0266929
   714 basis functions,  1518 primitive gaussians,   774 cartesian basis functions
   124 alpha electrons      124 beta electrons
       nuclear repulsion energy      3069.2646545266 Hartrees.
 IMHF & INEx in M05                  599485                  400514
 NAtoms=   30 NActive=   30 NUniq=   30 SFac= 1.00D+00 NAtFMM=   60 NAOKFM=F Big=F
 PrsmSu:  requested number of processors reduced to:  26 ShMem   1 Linda.
 ExpMin= 3.99D-02 ExpMax= 1.11D+05 ExpMxC= 1.07D+03 IAcc=3 IRadAn=         5 AccDes= 0.00D+00
 Harris functional with IExCor= 1009 and IRadAn=       5 diagonalized for initial guess.
 HarFok:  IExCor= 1009 AccDes= 0.00D+00 IRadAn=         5 IDoV= 1 UseB2=F ITyADJ=14
 ICtDFT=  3500011 ScaDFX=  1.000000  1.000000  1.000000  1.000000
 FoFCou: FMM=F IPFlag=           0 FMFlag=      100000 FMFlg1=           0
         NFxFlg=           0 DoJE=T BraDBF=F KetDBF=T FulRan=T
         wScrn=  0.000000 ICntrl=     500 IOpCl=  0 I1Cent=   200000004 NGrid=           0
         NMat0=    1 NMatS0=      1 NMatT0=    0 NMatD0=    1 NMtDS0=    0 NMtDT0=    0
 Symmetry not used in FoFCou.
 SCF Done:  E(RM05) =  -3448.35941529     A.U. after   16 cycles
            NFock= 16  Conv=0.10D-07     -V/T= 2.0058

 **********************************************************************

            Population analysis using the SCF density.

 **********************************************************************

 Alpha  occ. eigenvalues --  -90.54854 -90.54562 -90.52007 -90.51654 -90.51540
 Alpha  occ. eigenvalues --  -90.51278 -15.07971 -15.07687 -15.04861 -15.04486
 Alpha  occ. eigenvalues --  -15.04208 -15.04153 -15.03971 -15.03887 -10.89274
 Alpha  occ. eigenvalues --  -10.89158 -10.89117 -10.88983 -10.88876 -10.88839
 Alpha  occ. eigenvalues --  -10.88160 -10.87852 -10.86837 -10.86513 -10.84523
 Alpha  occ. eigenvalues --  -10.84119 -10.83650 -10.83600 -10.83434 -10.83340
 Alpha  occ. eigenvalues --   -8.57462  -8.57172  -8.54918  -8.54557  -8.54479
 Alpha  occ. eigenvalues --   -8.54218  -6.40184  -6.39894  -6.39834  -6.39544
 Alpha  occ. eigenvalues --   -6.39523  -6.39233  -6.37663  -6.37350  -6.37303
 Alpha  occ. eigenvalues --   -6.37216  -6.36988  -6.36956  -6.36908  -6.36890
 Alpha  occ. eigenvalues --   -6.36647  -6.36528  -6.36448  -6.36187  -1.20689
 Alpha  occ. eigenvalues --   -1.20405  -1.12924  -1.12668  -1.12394  -1.12006
 Alpha  occ. eigenvalues --   -1.11350  -1.11105  -1.07722  -1.07437  -1.03947
 Alpha  occ. eigenvalues --   -1.03636  -0.98946  -0.98664  -0.97523  -0.97214
 Alpha  occ. eigenvalues --   -0.88146  -0.87851  -0.84684  -0.84385  -0.82395
 Alpha  occ. eigenvalues --   -0.82086  -0.73793  -0.73510  -0.71447  -0.71154
 Alpha  occ. eigenvalues --   -0.68014  -0.67709  -0.64791  -0.64490  -0.59733
 Alpha  occ. eigenvalues --   -0.59440  -0.57386  -0.57094  -0.55538  -0.55253
 Alpha  occ. eigenvalues --   -0.53550  -0.53252  -0.52925  -0.52532  -0.52368
 Alpha  occ. eigenvalues --   -0.52053  -0.51930  -0.51682  -0.51014  -0.50725
 Alpha  occ. eigenvalues --   -0.50614  -0.50290  -0.49562  -0.49246  -0.48320
 Alpha  occ. eigenvalues --   -0.48070  -0.47025  -0.46688  -0.46180  -0.46040
 Alpha  occ. eigenvalues --   -0.45932  -0.45768  -0.45453  -0.45161  -0.43903
 Alpha  occ. eigenvalues --   -0.43601  -0.43283  -0.42980  -0.39627  -0.39358
 Alpha  occ. eigenvalues --   -0.37815  -0.37502  -0.33242  -0.32935
 Alpha virt. eigenvalues --   -0.09464  -0.09187  -0.08493  -0.08179  -0.02270
 Alpha virt. eigenvalues --   -0.01991  -0.01479  -0.01176  -0.00635  -0.00522
 Alpha virt. eigenvalues --   -0.00267  -0.00257   0.00036   0.00390   0.01011
 Alpha virt. eigenvalues --    0.01359   0.01959   0.02122   0.02201   0.02302
 Alpha virt. eigenvalues --    0.02462   0.02552   0.02853   0.03063   0.03299
 Alpha virt. eigenvalues --    0.03484   0.03979   0.04161   0.04345   0.04514
 Alpha virt. eigenvalues --    0.04687   0.04901   0.05582   0.05866   0.06131
 Alpha virt. eigenvalues --    0.06213   0.06496   0.06604   0.07068   0.07233
 Alpha virt. eigenvalues --    0.07367   0.07420   0.07746   0.07793   0.07896
 Alpha virt. eigenvalues --    0.08115   0.08540   0.08795   0.08848   0.09054
 Alpha virt. eigenvalues --    0.09562   0.09799   0.10220   0.10309   0.10508
 Alpha virt. eigenvalues --    0.10711   0.10788   0.10845   0.11045   0.11254
 Alpha virt. eigenvalues --    0.11466   0.11638   0.11908   0.11954   0.12239
 Alpha virt. eigenvalues --    0.12691   0.12903   0.13144   0.13394   0.13647
 Alpha virt. eigenvalues --    0.13757   0.14157   0.14348   0.14550   0.14829
 Alpha virt. eigenvalues --    0.14927   0.15175   0.15421   0.15615   0.15797
 Alpha virt. eigenvalues --    0.15970   0.16377   0.16515   0.16540   0.16728
 Alpha virt. eigenvalues --    0.16913   0.17236   0.17349   0.17524   0.17625
 Alpha virt. eigenvalues --    0.17750   0.18058   0.18573   0.18632   0.18854
 Alpha virt. eigenvalues --    0.19138   0.19251   0.19615   0.19803   0.19941
 Alpha virt. eigenvalues --    0.20142   0.20171   0.20302   0.20741   0.20988
 Alpha virt. eigenvalues --    0.21018   0.21374   0.21497   0.21622   0.21963
 Alpha virt. eigenvalues --    0.22295   0.22360   0.22517   0.22720   0.22985
 Alpha virt. eigenvalues --    0.23245   0.23375   0.23655   0.23868   0.24016
 Alpha virt. eigenvalues --    0.24129   0.24208   0.24510   0.24592   0.24698
 Alpha virt. eigenvalues --    0.25053   0.25281   0.25416   0.25797   0.25926
 Alpha virt. eigenvalues --    0.26052   0.26259   0.26395   0.26442   0.26643
 Alpha virt. eigenvalues --    0.26764   0.27046   0.27514   0.27875   0.28303
 Alpha virt. eigenvalues --    0.28553   0.28604   0.29222   0.29470   0.29742
 Alpha virt. eigenvalues --    0.30093   0.30388   0.30671   0.30811   0.31066
 Alpha virt. eigenvalues --    0.31811   0.32455   0.32612   0.33101   0.33672
 Alpha virt. eigenvalues --    0.33918   0.34339   0.34428   0.34623   0.35170
 Alpha virt. eigenvalues --    0.35460   0.35713   0.35726   0.36507   0.36629
 Alpha virt. eigenvalues --    0.36882   0.37316   0.37877   0.38072   0.38243
 Alpha virt. eigenvalues --    0.38878   0.39385   0.39989   0.40655   0.40822
 Alpha virt. eigenvalues --    0.41295   0.41544   0.41922   0.42116   0.42326
 Alpha virt. eigenvalues --    0.42581   0.43082   0.43444   0.43957   0.44443
 Alpha virt. eigenvalues --    0.45277   0.45723   0.45938   0.46344   0.46591
 Alpha virt. eigenvalues --    0.47206   0.47576   0.48594   0.49135   0.49772
 Alpha virt. eigenvalues --    0.49877   0.50153   0.50792   0.50914   0.51201
 Alpha virt. eigenvalues --    0.51744   0.52049   0.52265   0.52775   0.53697
 Alpha virt. eigenvalues --    0.53837   0.54332   0.54483   0.54646   0.54856
 Alpha virt. eigenvalues --    0.55148   0.55242   0.55530   0.55686   0.55875
 Alpha virt. eigenvalues --    0.55975   0.56215   0.56483   0.57013   0.57372
 Alpha virt. eigenvalues --    0.57991   0.58236   0.58406   0.58597   0.58747
 Alpha virt. eigenvalues --    0.59060   0.59889   0.60178   0.60557   0.60629
 Alpha virt. eigenvalues --    0.61146   0.61446   0.61600   0.61787   0.61925
 Alpha virt. eigenvalues --    0.62144   0.62723   0.62911   0.63296   0.63466
 Alpha virt. eigenvalues --    0.63662   0.64272   0.64852   0.65010   0.65411
 Alpha virt. eigenvalues --    0.65841   0.66398   0.66535   0.67087   0.67543
 Alpha virt. eigenvalues --    0.67649   0.68088   0.68367   0.68711   0.69442
 Alpha virt. eigenvalues --    0.69625   0.70184   0.70371   0.70798   0.70996
 Alpha virt. eigenvalues --    0.71419   0.72679   0.72727   0.73329   0.73572
 Alpha virt. eigenvalues --    0.73842   0.74062   0.74616   0.75362   0.75680
 Alpha virt. eigenvalues --    0.76015   0.76197   0.76405   0.77007   0.77159
 Alpha virt. eigenvalues --    0.77400   0.77667   0.77883   0.77997   0.78373
 Alpha virt. eigenvalues --    0.78605   0.79022   0.79565   0.79745   0.79772
 Alpha virt. eigenvalues --    0.80034   0.80109   0.80381   0.81193   0.81299
 Alpha virt. eigenvalues --    0.81605   0.82105   0.82524   0.82790   0.83742
 Alpha virt. eigenvalues --    0.83925   0.83947   0.84716   0.84959   0.85398
 Alpha virt. eigenvalues --    0.85889   0.86002   0.86268   0.86365   0.87158
 Alpha virt. eigenvalues --    0.87214   0.87459   0.87698   0.88377   0.88578
 Alpha virt. eigenvalues --    0.88767   0.89225   0.89514   0.89667   0.89860
 Alpha virt. eigenvalues --    0.90097   0.90266   0.90430   0.90926   0.91039
 Alpha virt. eigenvalues --    0.91515   0.91577   0.91946   0.92297   0.92943
 Alpha virt. eigenvalues --    0.93192   0.93778   0.94080   0.94458   0.94540
 Alpha virt. eigenvalues --    0.95453   0.95607   0.95822   0.96113   0.97490
 Alpha virt. eigenvalues --    0.97658   0.98622   0.99184   0.99411   0.99699
 Alpha virt. eigenvalues --    0.99966   1.00272   1.01133   1.01756   1.02760
 Alpha virt. eigenvalues --    1.03146   1.03468   1.03816   1.04723   1.05219
 Alpha virt. eigenvalues --    1.05776   1.06117   1.06685   1.07009   1.08080
 Alpha virt. eigenvalues --    1.08281   1.08464   1.08811   1.09657   1.09991
 Alpha virt. eigenvalues --    1.10124   1.10674   1.11582   1.11990   1.13221
 Alpha virt. eigenvalues --    1.13565   1.13696   1.13922   1.14488   1.14944
 Alpha virt. eigenvalues --    1.15289   1.15611   1.16998   1.17318   1.18228
 Alpha virt. eigenvalues --    1.18484   1.20406   1.20515   1.20759   1.21049
 Alpha virt. eigenvalues --    1.21701   1.21887   1.22713   1.22937   1.23843
 Alpha virt. eigenvalues --    1.24109   1.24633   1.24708   1.26414   1.26819
 Alpha virt. eigenvalues --    1.27214   1.27525   1.29628   1.30058   1.30104
 Alpha virt. eigenvalues --    1.30506   1.32274   1.32578   1.34026   1.34355
 Alpha virt. eigenvalues --    1.37208   1.37464   1.39995   1.40116   1.40237
 Alpha virt. eigenvalues --    1.40445   1.41507   1.41739   1.42836   1.42936
 Alpha virt. eigenvalues --    1.43612   1.43808   1.45227   1.45335   1.46428
 Alpha virt. eigenvalues --    1.46858   1.47152   1.47494   1.49307   1.49794
 Alpha virt. eigenvalues --    1.49836   1.50210   1.50512   1.50836   1.51617
 Alpha virt. eigenvalues --    1.51864   1.51911   1.52105   1.52391   1.52654
 Alpha virt. eigenvalues --    1.53840   1.53985   1.54557   1.55000   1.55766
 Alpha virt. eigenvalues --    1.56132   1.56208   1.56464   1.56507   1.56691
 Alpha virt. eigenvalues --    1.57051   1.58016   1.58597   1.58999   1.59753
 Alpha virt. eigenvalues --    1.60084   1.60490   1.60775   1.60953   1.61407
 Alpha virt. eigenvalues --    1.62175   1.62408   1.63273   1.63525   1.64951
 Alpha virt. eigenvalues --    1.65112   1.66189   1.66516   1.67503   1.67752
 Alpha virt. eigenvalues --    1.68670   1.68887   1.69425   1.69658   1.70423
 Alpha virt. eigenvalues --    1.71035   1.71543   1.71897   1.74124   1.74471
 Alpha virt. eigenvalues --    1.76828   1.77140   1.77434   1.77739   1.79239
 Alpha virt. eigenvalues --    1.79346   1.79919   1.80178   1.81425   1.82358
 Alpha virt. eigenvalues --    1.82919   1.83355   1.85823   1.86197   1.88101
 Alpha virt. eigenvalues --    1.88829   1.89690   1.90149   1.90710   1.91500
 Alpha virt. eigenvalues --    1.91602   1.91789   1.94463   1.94875   1.95187
 Alpha virt. eigenvalues --    1.95341   1.97809   1.99298   2.00509   2.00763
 Alpha virt. eigenvalues --    2.00952   2.01389   2.05727   2.06798   2.07375
 Alpha virt. eigenvalues --    2.07855   2.08358   2.08571   2.08804   2.09275
 Alpha virt. eigenvalues --    2.11081   2.12261   2.13943   2.14444   2.18953
 Alpha virt. eigenvalues --    2.19804   2.20310   2.20772   2.24938   2.25712
 Alpha virt. eigenvalues --    2.27750   2.28437   2.30714   2.31495   2.37058
 Alpha virt. eigenvalues --    2.37252   2.37564   2.37716   2.37999   2.38212
 Alpha virt. eigenvalues --    2.38287   2.38559   2.39398   2.39656   2.40103
 Alpha virt. eigenvalues --    2.40294   2.40501   2.40787   2.42176   2.42372
 Alpha virt. eigenvalues --    2.42533   2.43087   2.44006   2.44079   2.45083
 Alpha virt. eigenvalues --    2.45488   2.51639   2.51809   2.54929   2.55236
 Alpha virt. eigenvalues --    2.61560   2.62037   2.64224   2.65260   2.68372
 Alpha virt. eigenvalues --    2.68649   2.71826   2.72120   2.73379   2.73479
 Alpha virt. eigenvalues --    2.76367   2.76587   2.78828   2.79284   2.81899
 Alpha virt. eigenvalues --    2.82297   2.94619   2.94930   2.99769   3.00143
 Alpha virt. eigenvalues --    3.01764   3.02064   3.10030   3.10283   3.11422
 Alpha virt. eigenvalues --    3.11991   3.16133   3.16232   3.17810   3.18406
 Alpha virt. eigenvalues --    3.24364   3.24768   3.27233   3.28350   3.35621
 Alpha virt. eigenvalues --    3.45738   3.60765   3.62233   3.75177   3.76115
          Condensed to atoms (all electrons):
 Mulliken charges:
               1
     1  C    0.574334
     2  C   -0.175619
     3  S    0.520670
     4  S    0.289343
     5  C    1.053861
     6  C    1.030714
     7  C    0.786440
     8  N   -1.061152
     9  S    0.565677
    10  C   -1.122331
    11  N   -0.152385
    12  C   -1.098135
    13  N   -0.166519
    14  C   -0.873782
    15  N   -0.170414
    16  C    0.636251
    17  C   -0.068438
    18  S    0.369636
    19  S    0.310362
    20  C    1.013865
    21  C    1.125883
    22  C    0.808139
    23  N   -1.090415
    24  S    0.566913
    25  C   -1.119508
    26  N   -0.152124
    27  C   -1.105534
    28  N   -0.161793
    29  C   -1.068944
    30  N   -0.064994
 Sum of Mulliken charges =  -0.00000
 Mulliken charges with hydrogens summed into heavy atoms:
               1
     1  C    0.574334
     2  C   -0.175619
     3  S    0.520670
     4  S    0.289343
     5  C    1.053861
     6  C    1.030714
     7  C    0.786440
     8  N   -1.061152
     9  S    0.565677
    10  C   -1.122331
    11  N   -0.152385
    12  C   -1.098135
    13  N   -0.166519
    14  C   -0.873782
    15  N   -0.170414
    16  C    0.636251
    17  C   -0.068438
    18  S    0.369636
    19  S    0.310362
    20  C    1.013865
    21  C    1.125883
    22  C    0.808139
    23  N   -1.090415
    24  S    0.566913
    25  C   -1.119508
    26  N   -0.152124
    27  C   -1.105534
    28  N   -0.161793
    29  C   -1.068944
    30  N   -0.064994
 Electronic spatial extent (au):  <R**2>=          62401.8065
 Charge=             -0.0000 electrons
 Dipole moment (field-independent basis, Debye):
    X=              8.1991    Y=              3.6058    Z=             -2.0003  Tot=              9.1776

 Test job not archived.
 1\1\GINC-CHIMERA-NODE29\SP\RM05\Gen\C16N8S6\CONNORNM\19-Jan-2019\0\\#T
  M05/Gen test Massage SCF=(fermi,maxcyc=60)\\M05 opt\\0,1\C,0,0.444411
 5,0.90895602,0.13193288\C,0,1.14432522,0.05486677,-0.76610887\S,0,-0.5
 224512,0.36878113,1.496449\S,0,1.12734002,-1.71296705,-0.67090685\C,0,
 -1.14499663,-1.16576091,0.86261936\C,0,-0.48775714,-1.98972803,0.00427
 3\C,0,0.69831501,2.22735227,-0.1884849\N,0,1.8699862,0.62405107,-1.697
 40119\S,0,1.78648796,2.2787912,-1.53683953\C,0,-2.42814367,-1.50586595
 ,1.38122508\N,0,-3.46331624,-1.75156044,1.84946113\C,0,-1.06024269,-3.
 22895394,-0.40866935\N,0,-1.47509188,-4.26013317,-0.74851589\C,0,0.216
 21238,3.39577973,0.4498902\N,0,-0.16250329,4.36532044,0.96725\C,0,0.47
 805878,0.19197552,10.19857366\C,0,1.1045901,0.78492349,11.33069462\S,0
 ,-0.43340841,-1.31048709,10.21729034\S,0,1.03872735,0.11228996,12.9670
 9755\C,0,-1.13410872,-1.24182743,11.84468919\C,0,-0.54721923,-0.678053
 92,12.93343351\C,0,0.755168,0.93820862,9.07089912\N,0,1.79842788,1.878
 92874,11.1316929\S,0,1.77368593,2.26915211,9.51366\C,0,-2.39867008,-1.
 89252628,11.9372377\N,0,-3.41541436,-2.45506219,11.96850175\C,0,-1.177
 61265,-0.718609,14.21206613\N,0,-1.64056403,-0.75354155,15.27760912\C,
 0,0.34228344,0.70214406,7.73711942\N,0,0.02033098,0.51873724,6.6353914
 7\\Version=AS64L-G09RevD.01\HF=-3448.3594153\RMSD=9.992e-09\Dipole=3.2
 257627,1.4186249,-0.7869664\Quadrupole=8.6429456,5.7483409,-14.3912865
 ,-9.565315,40.8832371,9.0998698\PG=C01 [X(C16N8S6)]\\@


 AN OPTIMIST IS A GUY
 THAT HAS NEVER HAD
 MUCH EXPERIENCE
   (CERTAIN MAXIMS OF ARCHY  -- DON MARQUIS)
 Job cpu time:       0 days  7 hours 21 minutes 50.7 seconds.
 File lengths (MBytes):  RWF=    225 Int=      0 D2E=      0 Chk=     19 Scr=      1
 Normal termination of Gaussian 09 at Sat Jan 19 12:08:36 2019.
