 Entering Gaussian System, Link 0=/data/szalewicgrp/connornm/opt/Gaussian/g09-M05-par/g09/g09
 AtFile(1): blind-aug.gbs
 Initial command:
 /data/szalewicgrp/connornm/opt/Gaussian/g09-M05-par/g09/l1.exe "/scratch/local/Gau-14812.inp" -scrdir="/scratch/local/"
 Entering Link 1 = /data/szalewicgrp/connornm/opt/Gaussian/g09-M05-par/g09/l1.exe PID=     14813.
  
 Copyright (c) 1988,1990,1992,1993,1995,1998,2003,2009,2013,
            Gaussian, Inc.  All Rights Reserved.
  
 This is part of the Gaussian(R) 09 program.  It is based on
 the Gaussian(R) 03 system (copyright 2003, Gaussian, Inc.),
 the Gaussian(R) 98 system (copyright 1998, Gaussian, Inc.),
 the Gaussian(R) 94 system (copyright 1995, Gaussian, Inc.),
 the Gaussian 92(TM) system (copyright 1992, Gaussian, Inc.),
 the Gaussian 90(TM) system (copyright 1990, Gaussian, Inc.),
 the Gaussian 88(TM) system (copyright 1988, Gaussian, Inc.),
 the Gaussian 86(TM) system (copyright 1986, Carnegie Mellon
 University), and the Gaussian 82(TM) system (copyright 1983,
 Carnegie Mellon University). Gaussian is a federally registered
 trademark of Gaussian, Inc.
  
 This software contains proprietary and confidential information,
 including trade secrets, belonging to Gaussian, Inc.
  
 This software is provided under written license and may be
 used, copied, transmitted, or stored only in accord with that
 written license.
  
 The following legend is applicable only to US Government
 contracts under FAR:
  
                    RESTRICTED RIGHTS LEGEND
  
 Use, reproduction and disclosure by the US Government is
 subject to restrictions as set forth in subparagraphs (a)
 and (c) of the Commercial Computer Software - Restricted
 Rights clause in FAR 52.227-19.
  
 Gaussian, Inc.
 340 Quinnipiac St., Bldg. 40, Wallingford CT 06492
  
  
 ---------------------------------------------------------------
 Warning -- This program may not be used in any manner that
 competes with the business of Gaussian, Inc. or will provide
 assistance to any competitor of Gaussian, Inc.  The licensee
 of this program is prohibited from giving any competitor of
 Gaussian, Inc. access to this program.  By using this program,
 the user acknowledges that Gaussian, Inc. is engaged in the
 business of creating and licensing software in the field of
 computational chemistry and represents and warrants to the
 licensee that it is not a competitor of Gaussian, Inc. and that
 it will not use this program in any manner prohibited above.
 ---------------------------------------------------------------
  

 Cite this work as:
 Gaussian 09, Revision D.01,
 M. J. Frisch, G. W. Trucks, H. B. Schlegel, G. E. Scuseria, 
 M. A. Robb, J. R. Cheeseman, G. Scalmani, V. Barone, B. Mennucci, 
 G. A. Petersson, H. Nakatsuji, M. Caricato, X. Li, H. P. Hratchian, 
 A. F. Izmaylov, J. Bloino, G. Zheng, J. L. Sonnenberg, M. Hada, 
 M. Ehara, K. Toyota, R. Fukuda, J. Hasegawa, M. Ishida, T. Nakajima, 
 Y. Honda, O. Kitao, H. Nakai, T. Vreven, J. A. Montgomery, Jr., 
 J. E. Peralta, F. Ogliaro, M. Bearpark, J. J. Heyd, E. Brothers, 
 K. N. Kudin, V. N. Staroverov, T. Keith, R. Kobayashi, J. Normand, 
 K. Raghavachari, A. Rendell, J. C. Burant, S. S. Iyengar, J. Tomasi, 
 M. Cossi, N. Rega, J. M. Millam, M. Klene, J. E. Knox, J. B. Cross, 
 V. Bakken, C. Adamo, J. Jaramillo, R. Gomperts, R. E. Stratmann, 
 O. Yazyev, A. J. Austin, R. Cammi, C. Pomelli, J. W. Ochterski, 
 R. L. Martin, K. Morokuma, V. G. Zakrzewski, G. A. Voth, 
 P. Salvador, J. J. Dannenberg, S. Dapprich, A. D. Daniels, 
 O. Farkas, J. B. Foresman, J. V. Ortiz, J. Cioslowski, 
 and D. J. Fox, Gaussian, Inc., Wallingford CT, 2013.
 
 ******************************************
 Gaussian 09:  AS64L-G09RevD.01 24-Apr-2013
                20-Jan-2019 
 ******************************************
 %Chk=BLIND02268
 %Mem=1GB
 %NProcShared=48
 Will use up to   48 processors via shared memory.
 ---------------------------------------------
 #T M05/Gen test Massage SCF=(fermi,maxcyc=60)
 ---------------------------------------------
 -------
 M05 opt
 -------
 Symbolic Z-matrix:
 Charge =  0 Multiplicity = 1
 6                     0.45669   0.83191   0.3748 
 6                     0.38479   0.81001  -1.04653 
 16                    0.57544  -0.58742   1.40432 
 16                    0.37106  -0.67085  -2.01681 
 6                    -0.36219  -1.75417   0.4537 
 6                    -0.44015  -1.78545  -0.90298 
 6                     0.49112   2.1388    0.81768 
 7                     0.3611    1.96435  -1.66685 
 16                    0.45845   3.19834  -0.55387 
 6                    -1.02233  -2.72863   1.25727 
 7                    -1.52184  -3.51487   1.95261 
 6                    -1.1871   -2.79874  -1.57325 
 7                    -1.75914  -3.62178  -2.16172 
 6                     0.57371   2.61399   2.14905 
 7                     0.65061   3.02165   3.23486 
 6                     0.39915  -0.88605   7.22367 
 6                     0.36016   0.11134   6.20902 
 16                    0.57734  -0.57361   8.94389 
 16                    0.45403   1.85113   6.52349 
 6                    -0.26958   0.97837   9.07875 
 6                    -0.31551   1.93844   8.1176 
 6                     0.34773  -2.13844   6.6456 
 7                     0.28316  -0.29618   4.96569 
 16                    0.28393  -1.96022   4.92252 
 6                    -0.88961   1.16894   10.34774 
 7                    -1.35786   1.2885    11.40492 
 6                    -0.98725   3.17562   8.34584 
 7                    -1.49731   4.20882   8.49842 
 6                     0.37303  -3.40265   7.28303 
 7                     0.40202  -4.44879   7.78883 
 
                    Distance matrix (angstroms):
                    1          2          3          4          5
     1  C    0.000000
     2  C    1.423315   0.000000
     3  S    1.757418   2.827694   0.000000
     4  S    2.825849   1.770477   3.428253   0.000000
     5  C    2.713774   3.063280   1.773167   2.795470   0.000000
     6  C    3.047557   2.727187   2.791121   1.772288   1.359281
     7  C    1.380327   2.291783   2.789903   3.992857   4.001979
     8  N    2.336642   1.310672   3.998700   2.658358   4.341342
     9  S    2.542129   2.439721   4.263822   4.137445   5.120151
    10  C    3.955208   4.450782   2.675676   4.110426   1.425163
    11  N    5.029770   5.597745   3.642685   5.237162   2.586817
    12  C    4.436049   3.971317   4.106384   2.674416   2.424897
    13  N    5.583831   5.047859   5.232040   3.642352   3.504263
    14  C    2.517432   3.674472   3.286888   5.309014   4.778168
    15  N    3.607292   4.826214   4.047461   6.425950   5.618639
    16  C    7.061289   8.442342   5.829674   9.243036   6.867738
    17  C    5.879343   7.289154   4.860009   8.262944   6.093077
    18  S    8.684435  10.087618   7.539580  10.963077   8.623212
    19  S    6.232597   7.641596   5.671610   8.905285   7.106812
    20  C    8.735428  10.147802   7.877980  11.235742   9.048031
    21  C    7.859502   9.259869   7.227856  10.487432   8.507233
    22  C    6.939583   8.237939   5.470694   8.785885   6.244300
    23  N    4.730642   6.113983   3.585189   6.993102   4.785424
    24  S    5.339255   6.581336   3.787781   7.058645   4.519991
    25  C   10.069045  11.470934   9.231242  12.564087  10.330285
    26  N   11.187706  12.581914  10.357061  13.673744  11.409581
    27  C    8.432997   9.782393   8.049042  11.136646   9.326274
    28  N    9.011929  10.305352   8.810581  11.741894  10.077857
    29  C    8.103218   9.334251   6.521170   9.692772   7.063838
    30  N    9.102562  10.281970   7.463388  10.508302   7.851697
                    6          7          8          9         10
     6  C    0.000000
     7  C    4.384939   0.000000
     8  N    3.909794   2.494036   0.000000
     9  S    5.076167   1.733444   1.664607   0.000000
    10  C    2.428007   5.116215   5.699860   6.371958   0.000000
    11  N    3.509330   6.107712   6.831389   7.434461   1.162408
    12  C    1.426163   5.736923   5.009263   6.301738   2.836178
    13  N    2.587713   6.864751   5.995430   7.349618   3.609722
    14  C    5.449573   1.416040   3.876636   2.767765   5.646781
    15  N    6.435818   2.578302   5.022796   3.797715   6.306769
    16  C    8.219240   7.084843   9.336363   8.784985   6.404189
    17  C    7.403976   5.761452   8.090919   7.434778   5.873369
    18  S    9.973203   8.567380  10.912189  10.220042   8.141692
    19  S    8.317260   5.713183   8.191653   7.204449   7.133505
    20  C   10.358707   8.376789  10.809155   9.911896   8.688153
    21  C    9.759811   7.347091   9.807856   8.796639   8.327383
    22  C    7.597794   7.230497   9.269840   8.962471   5.591016
    23  N    6.097741   4.814393   7.007614   6.535129   4.623147
    24  S    5.872936   5.804714   7.669947   7.525430   3.966211
    25  C   11.640841   9.678281  12.105672  11.170534   9.891676
    26  N   12.719117  10.781074  13.201625  12.245787  10.919008
    27  C   10.509625   7.741690  10.175418   9.016396   9.225462
    28  N   11.199784   8.199550  10.574687   9.316118  10.039319
    29  C    8.383760   8.516009  10.435765  10.246821   6.221825
    30  N    9.129636   9.591732  11.425409  11.317351   6.902824
                   11         12         13         14         15
    11  N    0.000000
    12  C    3.613393   0.000000
    13  N    4.122555   1.162293   0.000000
    14  C    6.480188   6.800997   7.931563   0.000000
    15  N    7.006418   7.769948   8.891861   1.162367   0.000000
    16  C    6.195559   9.141138  10.011392   6.167056   5.589636
    17  C    5.899854   8.451404   9.407274   4.774121   4.171323
    18  S    7.869912  10.893790  11.750957   7.505379   6.747174
    19  S    7.320585   9.480074  10.501606   4.442077   3.496266
    20  C    8.516996  11.339026  12.236351   7.169878   6.258818
    21  C    8.318714  10.821886  11.775594   6.072129   5.093911
    22  C    5.235833   8.386963   9.176492   6.546423   6.192859
    23  N    4.764100   7.154174   8.125919   4.060412   3.760159
    24  S    3.807637   6.712830   7.557868   5.357195   5.272738
    25  C    9.634104  12.567456  13.423620   8.452692   7.509851
    26  N   10.604030  13.607633  14.433489   9.547730   8.589979
    27  C    9.269402  11.581072  12.538309   6.415000   5.369207
    28  N   10.124403  12.273573  13.229712   6.866377   5.807579
    29  C    5.658308   9.012901   9.684907   7.911887   7.598447
    30  N    6.215691   9.638279  10.216061   9.039883   8.752602
                   16         17         18         19         20
    16  C    0.000000
    17  C    1.423315   0.000000
    18  S    1.757418   2.827694   0.000000
    19  S    2.825849   1.770477   3.428253   0.000000
    20  C    2.713774   3.063280   1.773167   2.795470   0.000000
    21  C    3.047557   2.727187   2.791121   1.772288   1.359281
    22  C    1.380327   2.291783   2.789903   3.992857   4.001979
    23  N    2.336642   1.310672   3.998700   2.658358   4.341342
    24  S    2.542129   2.439721   4.263822   4.137445   5.120151
    25  C    3.955208   4.450782   2.675676   4.110426   1.425163
    26  N    5.029770   5.597745   3.642685   5.237162   2.586817
    27  C    4.436049   3.971317   4.106384   2.674416   2.424897
    28  N    5.583831   5.047859   5.232040   3.642352   3.504263
    29  C    2.517432   3.674472   3.286888   5.309014   4.778168
    30  N    3.607292   4.826214   4.047461   6.425950   5.618639
                   21         22         23         24         25
    21  C    0.000000
    22  C    4.384939   0.000000
    23  N    3.909794   2.494036   0.000000
    24  S    5.076167   1.733444   1.664607   0.000000
    25  C    2.428007   5.116215   5.699860   6.371958   0.000000
    26  N    3.509330   6.107712   6.831389   7.434461   1.162408
    27  C    1.426163   5.736923   5.009263   6.301738   2.836178
    28  N    2.587713   6.864751   5.995430   7.349618   3.609722
    29  C    5.449573   1.416040   3.876636   2.767765   5.646781
    30  N    6.435818   2.578302   5.022796   3.797715   6.306769
                   26         27         28         29         30
    26  N    0.000000
    27  C    3.613393   0.000000
    28  N    4.122555   1.162293   0.000000
    29  C    6.480188   6.800997   7.931563   0.000000
    30  N    7.006418   7.769948   8.891861   1.162367   0.000000
 Symmetry turned off by external request.
 Framework group  C1[X(C16N8S6)]
 Deg. of freedom    84
 Rotational constants (GHZ):      0.1865675      0.0575836      0.0460024
   714 basis functions,  1518 primitive gaussians,   774 cartesian basis functions
   124 alpha electrons      124 beta electrons
       nuclear repulsion energy      3413.4066209453 Hartrees.
 IMHF & INEx in M05                  599485                  400514
 NAtoms=   30 NActive=   30 NUniq=   30 SFac= 1.00D+00 NAtFMM=   60 NAOKFM=F Big=F
 PrsmSu:  requested number of processors reduced to:  26 ShMem   1 Linda.
 ExpMin= 3.99D-02 ExpMax= 1.11D+05 ExpMxC= 1.07D+03 IAcc=3 IRadAn=         5 AccDes= 0.00D+00
 Harris functional with IExCor= 1009 and IRadAn=       5 diagonalized for initial guess.
 HarFok:  IExCor= 1009 AccDes= 0.00D+00 IRadAn=         5 IDoV= 1 UseB2=F ITyADJ=14
 ICtDFT=  3500011 ScaDFX=  1.000000  1.000000  1.000000  1.000000
 FoFCou: FMM=F IPFlag=           0 FMFlag=      100000 FMFlg1=           0
         NFxFlg=           0 DoJE=T BraDBF=F KetDBF=T FulRan=T
         wScrn=  0.000000 ICntrl=     500 IOpCl=  0 I1Cent=   200000004 NGrid=           0
         NMat0=    1 NMatS0=      1 NMatT0=    0 NMatD0=    1 NMtDS0=    0 NMtDT0=    0
 Symmetry not used in FoFCou.
