 Entering Gaussian System, Link 0=/data/szalewicgrp/connornm/opt/Gaussian/g09-M05-par/g09/g09
 AtFile(1): blind-aug.gbs
 Initial command:
 /data/szalewicgrp/connornm/opt/Gaussian/g09-M05-par/g09/l1.exe "/scratch/local/Gau-6995.inp" -scrdir="/scratch/local/"
 Entering Link 1 = /data/szalewicgrp/connornm/opt/Gaussian/g09-M05-par/g09/l1.exe PID=      6996.
  
 Copyright (c) 1988,1990,1992,1993,1995,1998,2003,2009,2013,
            Gaussian, Inc.  All Rights Reserved.
  
 This is part of the Gaussian(R) 09 program.  It is based on
 the Gaussian(R) 03 system (copyright 2003, Gaussian, Inc.),
 the Gaussian(R) 98 system (copyright 1998, Gaussian, Inc.),
 the Gaussian(R) 94 system (copyright 1995, Gaussian, Inc.),
 the Gaussian 92(TM) system (copyright 1992, Gaussian, Inc.),
 the Gaussian 90(TM) system (copyright 1990, Gaussian, Inc.),
 the Gaussian 88(TM) system (copyright 1988, Gaussian, Inc.),
 the Gaussian 86(TM) system (copyright 1986, Carnegie Mellon
 University), and the Gaussian 82(TM) system (copyright 1983,
 Carnegie Mellon University). Gaussian is a federally registered
 trademark of Gaussian, Inc.
  
 This software contains proprietary and confidential information,
 including trade secrets, belonging to Gaussian, Inc.
  
 This software is provided under written license and may be
 used, copied, transmitted, or stored only in accord with that
 written license.
  
 The following legend is applicable only to US Government
 contracts under FAR:
  
                    RESTRICTED RIGHTS LEGEND
  
 Use, reproduction and disclosure by the US Government is
 subject to restrictions as set forth in subparagraphs (a)
 and (c) of the Commercial Computer Software - Restricted
 Rights clause in FAR 52.227-19.
  
 Gaussian, Inc.
 340 Quinnipiac St., Bldg. 40, Wallingford CT 06492
  
  
 ---------------------------------------------------------------
 Warning -- This program may not be used in any manner that
 competes with the business of Gaussian, Inc. or will provide
 assistance to any competitor of Gaussian, Inc.  The licensee
 of this program is prohibited from giving any competitor of
 Gaussian, Inc. access to this program.  By using this program,
 the user acknowledges that Gaussian, Inc. is engaged in the
 business of creating and licensing software in the field of
 computational chemistry and represents and warrants to the
 licensee that it is not a competitor of Gaussian, Inc. and that
 it will not use this program in any manner prohibited above.
 ---------------------------------------------------------------
  

 Cite this work as:
 Gaussian 09, Revision D.01,
 M. J. Frisch, G. W. Trucks, H. B. Schlegel, G. E. Scuseria, 
 M. A. Robb, J. R. Cheeseman, G. Scalmani, V. Barone, B. Mennucci, 
 G. A. Petersson, H. Nakatsuji, M. Caricato, X. Li, H. P. Hratchian, 
 A. F. Izmaylov, J. Bloino, G. Zheng, J. L. Sonnenberg, M. Hada, 
 M. Ehara, K. Toyota, R. Fukuda, J. Hasegawa, M. Ishida, T. Nakajima, 
 Y. Honda, O. Kitao, H. Nakai, T. Vreven, J. A. Montgomery, Jr., 
 J. E. Peralta, F. Ogliaro, M. Bearpark, J. J. Heyd, E. Brothers, 
 K. N. Kudin, V. N. Staroverov, T. Keith, R. Kobayashi, J. Normand, 
 K. Raghavachari, A. Rendell, J. C. Burant, S. S. Iyengar, J. Tomasi, 
 M. Cossi, N. Rega, J. M. Millam, M. Klene, J. E. Knox, J. B. Cross, 
 V. Bakken, C. Adamo, J. Jaramillo, R. Gomperts, R. E. Stratmann, 
 O. Yazyev, A. J. Austin, R. Cammi, C. Pomelli, J. W. Ochterski, 
 R. L. Martin, K. Morokuma, V. G. Zakrzewski, G. A. Voth, 
 P. Salvador, J. J. Dannenberg, S. Dapprich, A. D. Daniels, 
 O. Farkas, J. B. Foresman, J. V. Ortiz, J. Cioslowski, 
 and D. J. Fox, Gaussian, Inc., Wallingford CT, 2013.
 
 ******************************************
 Gaussian 09:  AS64L-G09RevD.01 24-Apr-2013
                19-Jan-2019 
 ******************************************
 %Chk=BLIND01484_mB
 %Mem=1GB
 %NProcShared=48
 Will use up to   48 processors via shared memory.
 ---------------------------------------------
 #T M05/Gen test Massage SCF=(fermi,maxcyc=60)
 ---------------------------------------------
 -------
 M05 opt
 -------
 Symbolic Z-matrix:
 Charge =  0 Multiplicity = 1
 6                     0.61584   0.6661    6.66453 
 6                    -0.23782   1.26028   7.63614 
 16                    1.24111  -0.97484   6.73454 
 16                   -0.84067   0.42078   9.07364 
 6                    -0.10613  -1.79869   7.54098 
 6                    -0.92906  -1.24288   8.46916 
 6                     0.93561   1.59668   5.69651 
 7                    -0.56482   2.51765   7.46308 
 16                    0.17868   3.10456   6.09426 
 6                    -0.23774  -3.16452   7.15591 
 7                    -0.29023  -4.27867   6.82863 
 6                    -1.95656  -2.00962   9.09389 
 7                    -2.787    -2.60365   9.64926 
 6                     1.76319   1.43323   4.55917 
 7                     2.44673   1.31968   3.62591 
 
                    Distance matrix (angstroms):
                    1          2          3          4          5
     1  C    0.000000
     2  C    1.423315   0.000000
     3  S    1.757418   2.827694   0.000000
     4  S    2.825849   1.770477   3.428253   0.000000
     5  C    2.713774   3.063280   1.773167   2.795470   0.000000
     6  C    3.047557   2.727187   2.791121   1.772288   1.359281
     7  C    1.380327   2.291783   2.789903   3.992857   4.001979
     8  N    2.336642   1.310672   3.998700   2.658358   4.341342
     9  S    2.542129   2.439721   4.263822   4.137445   5.120151
    10  C    3.955208   4.450782   2.675676   4.110426   1.425163
    11  N    5.029770   5.597745   3.642685   5.237162   2.586817
    12  C    4.436049   3.971317   4.106384   2.674416   2.424897
    13  N    5.583831   5.047859   5.232040   3.642352   3.504263
    14  C    2.517432   3.674472   3.286888   5.309014   4.778168
    15  N    3.607292   4.826214   4.047461   6.425950   5.618639
                    6          7          8          9         10
     6  C    0.000000
     7  C    4.384939   0.000000
     8  N    3.909794   2.494036   0.000000
     9  S    5.076167   1.733444   1.664607   0.000000
    10  C    2.428007   5.116215   5.699860   6.371958   0.000000
    11  N    3.509330   6.107712   6.831389   7.434461   1.162408
    12  C    1.426163   5.736923   5.009263   6.301738   2.836178
    13  N    2.587713   6.864751   5.995430   7.349618   3.609722
    14  C    5.449573   1.416040   3.876636   2.767765   5.646781
    15  N    6.435818   2.578302   5.022796   3.797715   6.306769
                   11         12         13         14         15
    11  N    0.000000
    12  C    3.613393   0.000000
    13  N    4.122555   1.162293   0.000000
    14  C    6.480188   6.800997   7.931563   0.000000
    15  N    7.006418   7.769948   8.891861   1.162367   0.000000
 Symmetry turned off by external request.
 Framework group  C1[X(C8N4S3)]
 Deg. of freedom    39
 Rotational constants (GHZ):      0.7722167      0.3388923      0.2463240
   357 basis functions,   759 primitive gaussians,   387 cartesian basis functions
    62 alpha electrons       62 beta electrons
       nuclear repulsion energy      1166.1400397787 Hartrees.
 IMHF & INEx in M05                  599485                  400514
 NAtoms=   15 NActive=   15 NUniq=   15 SFac= 1.00D+00 NAtFMM=   60 NAOKFM=F Big=F
 PrsmSu:  requested number of processors reduced to:  34 ShMem   1 Linda.
 ExpMin= 3.99D-02 ExpMax= 1.11D+05 ExpMxC= 1.07D+03 IAcc=3 IRadAn=         5 AccDes= 0.00D+00
 Harris functional with IExCor= 1009 and IRadAn=       5 diagonalized for initial guess.
 HarFok:  IExCor= 1009 AccDes= 0.00D+00 IRadAn=         5 IDoV= 1 UseB2=F ITyADJ=14
 ICtDFT=  3500011 ScaDFX=  1.000000  1.000000  1.000000  1.000000
 FoFCou: FMM=F IPFlag=           0 FMFlag=      100000 FMFlg1=           0
         NFxFlg=           0 DoJE=T BraDBF=F KetDBF=T FulRan=T
         wScrn=  0.000000 ICntrl=     500 IOpCl=  0 I1Cent=   200000004 NGrid=           0
         NMat0=    1 NMatS0=      1 NMatT0=    0 NMatD0=    1 NMtDS0=    0 NMtDT0=    0
 Symmetry not used in FoFCou.
 SCF Done:  E(RM05) =  -1724.76147668     A.U. after   17 cycles
            NFock= 17  Conv=0.51D-08     -V/T= 2.0061

 **********************************************************************

            Population analysis using the SCF density.

 **********************************************************************

 Alpha  occ. eigenvalues --  -90.56430 -90.53637 -90.53180 -15.08622 -15.05416
 Alpha  occ. eigenvalues --  -15.04969 -15.04934 -10.89944 -10.89826 -10.89736
 Alpha  occ. eigenvalues --  -10.88752 -10.87414 -10.84946 -10.84331 -10.84310
 Alpha  occ. eigenvalues --   -8.57525  -8.55036  -8.54607  -6.40062  -6.39712
 Alpha  occ. eigenvalues --   -6.39400  -6.37598  -6.37283  -6.37161  -6.36851
 Alpha  occ. eigenvalues --   -6.36822  -6.36391  -1.20533  -1.12895  -1.12139
 Alpha  occ. eigenvalues --   -1.11337  -1.07643  -1.03801  -0.98824  -0.97396
 Alpha  occ. eigenvalues --   -0.88002  -0.84555  -0.82236  -0.73686  -0.71296
 Alpha  occ. eigenvalues --   -0.67838  -0.64612  -0.59530  -0.57258  -0.55386
 Alpha  occ. eigenvalues --   -0.53385  -0.52648  -0.52242  -0.51890  -0.50883
 Alpha  occ. eigenvalues --   -0.50387  -0.49356  -0.48215  -0.46805  -0.46074
 Alpha  occ. eigenvalues --   -0.45933  -0.45296  -0.43720  -0.43113  -0.39488
 Alpha  occ. eigenvalues --   -0.37627  -0.33119
 Alpha virt. eigenvalues --   -0.09329  -0.08269  -0.02098  -0.01263  -0.00503
 Alpha virt. eigenvalues --   -0.00362   0.00153   0.01255   0.02020   0.02227
 Alpha virt. eigenvalues --    0.02394   0.02957   0.03188   0.04002   0.04275
 Alpha virt. eigenvalues --    0.04485   0.05427   0.06007   0.06296   0.07067
 Alpha virt. eigenvalues --    0.07272   0.07524   0.07708   0.08286   0.08490
 Alpha virt. eigenvalues --    0.09374   0.10094   0.10392   0.10524   0.10811
 Alpha virt. eigenvalues --    0.11286   0.11389   0.11975   0.12527   0.13228
 Alpha virt. eigenvalues --    0.13491   0.13934   0.14456   0.15076   0.15189
 Alpha virt. eigenvalues --    0.15906   0.16271   0.16678   0.16812   0.17191
 Alpha virt. eigenvalues --    0.17360   0.17840   0.18607   0.19047   0.19562
 Alpha virt. eigenvalues --    0.19853   0.20239   0.20680   0.20934   0.21267
 Alpha virt. eigenvalues --    0.21879   0.22204   0.22580   0.22823   0.23612
 Alpha virt. eigenvalues --    0.23747   0.24118   0.24368   0.24700   0.25257
 Alpha virt. eigenvalues --    0.25698   0.25851   0.26227   0.26627   0.26748
 Alpha virt. eigenvalues --    0.27068   0.28335   0.29196   0.29660   0.30370
 Alpha virt. eigenvalues --    0.30710   0.32419   0.33455   0.34154   0.34716
 Alpha virt. eigenvalues --    0.34949   0.35472   0.36120   0.36933   0.37593
 Alpha virt. eigenvalues --    0.38151   0.39578   0.40728   0.41170   0.42051
 Alpha virt. eigenvalues --    0.42118   0.43485   0.44136   0.45735   0.45983
 Alpha virt. eigenvalues --    0.46962   0.48551   0.49571   0.50236   0.50602
 Alpha virt. eigenvalues --    0.51523   0.51854   0.53528   0.54165   0.54424
 Alpha virt. eigenvalues --    0.54703   0.55467   0.55734   0.55838   0.56453
 Alpha virt. eigenvalues --    0.57772   0.58140   0.58557   0.59215   0.60311
 Alpha virt. eigenvalues --    0.60553   0.61101   0.61586   0.62104   0.62708
 Alpha virt. eigenvalues --    0.63717   0.64716   0.64957   0.66006   0.66561
 Alpha virt. eigenvalues --    0.67689   0.68191   0.68805   0.70108   0.70413
 Alpha virt. eigenvalues --    0.71045   0.72864   0.73462   0.73855   0.75369
 Alpha virt. eigenvalues --    0.75565   0.76458   0.77062   0.77551   0.77842
 Alpha virt. eigenvalues --    0.78242   0.79254   0.79758   0.79878   0.81108
 Alpha virt. eigenvalues --    0.81534   0.82547   0.83276   0.83957   0.84872
 Alpha virt. eigenvalues --    0.85698   0.85938   0.87122   0.87246   0.88403
 Alpha virt. eigenvalues --    0.88459   0.89345   0.89664   0.89829   0.90731
 Alpha virt. eigenvalues --    0.91170   0.91725   0.92829   0.93722   0.94370
 Alpha virt. eigenvalues --    0.95432   0.95569   0.97327   0.98745   0.99313
 Alpha virt. eigenvalues --    0.99847   1.01204   1.02849   1.03575   1.04749
 Alpha virt. eigenvalues --    1.05758   1.06747   1.08039   1.08541   1.09634
 Alpha virt. eigenvalues --    1.10233   1.11398   1.13196   1.13604   1.14403
 Alpha virt. eigenvalues --    1.15322   1.17095   1.18343   1.20286   1.20631
 Alpha virt. eigenvalues --    1.21606   1.22703   1.23934   1.24222   1.26561
 Alpha virt. eigenvalues --    1.27344   1.29760   1.30250   1.32275   1.34126
 Alpha virt. eigenvalues --    1.37314   1.40082   1.40257   1.41566   1.42733
 Alpha virt. eigenvalues --    1.43615   1.45025   1.46463   1.47274   1.49373
 Alpha virt. eigenvalues --    1.49824   1.50475   1.51644   1.51870   1.52337
 Alpha virt. eigenvalues --    1.53717   1.54193   1.55432   1.56137   1.56450
 Alpha virt. eigenvalues --    1.56791   1.58487   1.59729   1.60390   1.60520
 Alpha virt. eigenvalues --    1.62132   1.63282   1.64918   1.66030   1.67546
 Alpha virt. eigenvalues --    1.68617   1.69174   1.70472   1.71324   1.74151
 Alpha virt. eigenvalues --    1.76830   1.77079   1.79017   1.79378   1.81044
 Alpha virt. eigenvalues --    1.82959   1.85920   1.88151   1.89702   1.90609
 Alpha virt. eigenvalues --    1.91369   1.94487   1.95006   1.97394   2.00541
 Alpha virt. eigenvalues --    2.00828   2.05448   2.07035   2.08351   2.08472
 Alpha virt. eigenvalues --    2.10895   2.13936   2.18605   2.20234   2.24594
 Alpha virt. eigenvalues --    2.27646   2.30686   2.37025   2.37402   2.38002
 Alpha virt. eigenvalues --    2.38279   2.39370   2.39931   2.40471   2.42148
 Alpha virt. eigenvalues --    2.42559   2.43755   2.45056   2.51017   2.54996
 Alpha virt. eigenvalues --    2.61161   2.64129   2.68330   2.71899   2.73263
 Alpha virt. eigenvalues --    2.76308   2.78780   2.81841   2.94679   2.99731
 Alpha virt. eigenvalues --    3.01875   3.09943   3.11451   3.15942   3.17849
 Alpha virt. eigenvalues --    3.24294   3.27130   3.35295   3.59302   3.74893
          Condensed to atoms (all electrons):
 Mulliken charges:
               1
     1  C    0.619687
     2  C   -0.109521
     3  S    0.374731
     4  S    0.297222
     5  C    1.040646
     6  C    1.131125
     7  C    0.787355
     8  N   -1.083566
     9  S    0.557156
    10  C   -1.129840
    11  N   -0.167904
    12  C   -1.100524
    13  N   -0.180495
    14  C   -0.853151
    15  N   -0.182923
 Sum of Mulliken charges =  -0.00000
 Mulliken charges with hydrogens summed into heavy atoms:
               1
     1  C    0.619687
     2  C   -0.109521
     3  S    0.374731
     4  S    0.297222
     5  C    1.040646
     6  C    1.131125
     7  C    0.787355
     8  N   -1.083566
     9  S    0.557156
    10  C   -1.129840
    11  N   -0.167904
    12  C   -1.100524
    13  N   -0.180495
    14  C   -0.853151
    15  N   -0.182923
 Electronic spatial extent (au):  <R**2>=          26526.4552
 Charge=              0.0000 electrons
 Dipole moment (field-independent basis, Debye):
    X=              1.1877    Y=              4.4711    Z=              0.7424  Tot=              4.6853

 Test job not archived.
 1\1\GINC-CHIMERA-NODE25\SP\RM05\Gen\C8N4S3\CONNORNM\19-Jan-2019\0\\#T 
 M05/Gen test Massage SCF=(fermi,maxcyc=60)\\M05 opt\\0,1\C,0,0.6158414
 5,0.66609546,6.66452858\C,0,-0.23782301,1.26027874,7.63614057\S,0,1.24
 110586,-0.97483698,6.73454137\S,0,-0.84066506,0.42078129,9.07364321\C,
 0,-0.10613233,-1.79868901,7.54097746\C,0,-0.92906097,-1.24288442,8.469
 15512\C,0,0.93560576,1.59668417,5.69651068\N,0,-0.56481565,2.51765151,
 7.46308116\S,0,0.1786786,3.10455817,6.09425913\C,0,-0.23773723,-3.1645
 2004,7.155912\N,0,-0.29023381,-4.27866789,6.82863277\C,0,-1.95656156,-
 2.00962359,9.09389149\N,0,-2.78700093,-2.60364849,9.64925713\C,0,1.763
 19189,1.43323228,4.55916592\N,0,2.4467307,1.31967611,3.62590517\\Versi
 on=AS64L-G09RevD.01\HF=-1724.7614767\RMSD=5.138e-09\Dipole=0.4672598,1
 .7590643,0.292069\Quadrupole=-1.1163853,-4.6762149,5.7926002,-5.71163,
 16.3477116,25.0402098\PG=C01 [X(C8N4S3)]\\@


 THERE'S SMALL CHOICE IN A BOWL OF ROTTEN APPLES.
                     SHAKESPEARE
 Job cpu time:       0 days  1 hours 38 minutes 44.6 seconds.
 File lengths (MBytes):  RWF=     58 Int=      0 D2E=      0 Chk=      6 Scr=      1
 Normal termination of Gaussian 09 at Sat Jan 19 11:18:55 2019.
