 Entering Gaussian System, Link 0=/data/szalewicgrp/connornm/opt/Gaussian/g09-M05-par/g09/g09
 AtFile(1): blind-aug.gbs
 Initial command:
 /data/szalewicgrp/connornm/opt/Gaussian/g09-M05-par/g09/l1.exe "/scratch/local/Gau-19507.inp" -scrdir="/scratch/local/"
 Entering Link 1 = /data/szalewicgrp/connornm/opt/Gaussian/g09-M05-par/g09/l1.exe PID=     19508.
  
 Copyright (c) 1988,1990,1992,1993,1995,1998,2003,2009,2013,
            Gaussian, Inc.  All Rights Reserved.
  
 This is part of the Gaussian(R) 09 program.  It is based on
 the Gaussian(R) 03 system (copyright 2003, Gaussian, Inc.),
 the Gaussian(R) 98 system (copyright 1998, Gaussian, Inc.),
 the Gaussian(R) 94 system (copyright 1995, Gaussian, Inc.),
 the Gaussian 92(TM) system (copyright 1992, Gaussian, Inc.),
 the Gaussian 90(TM) system (copyright 1990, Gaussian, Inc.),
 the Gaussian 88(TM) system (copyright 1988, Gaussian, Inc.),
 the Gaussian 86(TM) system (copyright 1986, Carnegie Mellon
 University), and the Gaussian 82(TM) system (copyright 1983,
 Carnegie Mellon University). Gaussian is a federally registered
 trademark of Gaussian, Inc.
  
 This software contains proprietary and confidential information,
 including trade secrets, belonging to Gaussian, Inc.
  
 This software is provided under written license and may be
 used, copied, transmitted, or stored only in accord with that
 written license.
  
 The following legend is applicable only to US Government
 contracts under FAR:
  
                    RESTRICTED RIGHTS LEGEND
  
 Use, reproduction and disclosure by the US Government is
 subject to restrictions as set forth in subparagraphs (a)
 and (c) of the Commercial Computer Software - Restricted
 Rights clause in FAR 52.227-19.
  
 Gaussian, Inc.
 340 Quinnipiac St., Bldg. 40, Wallingford CT 06492
  
  
 ---------------------------------------------------------------
 Warning -- This program may not be used in any manner that
 competes with the business of Gaussian, Inc. or will provide
 assistance to any competitor of Gaussian, Inc.  The licensee
 of this program is prohibited from giving any competitor of
 Gaussian, Inc. access to this program.  By using this program,
 the user acknowledges that Gaussian, Inc. is engaged in the
 business of creating and licensing software in the field of
 computational chemistry and represents and warrants to the
 licensee that it is not a competitor of Gaussian, Inc. and that
 it will not use this program in any manner prohibited above.
 ---------------------------------------------------------------
  

 Cite this work as:
 Gaussian 09, Revision D.01,
 M. J. Frisch, G. W. Trucks, H. B. Schlegel, G. E. Scuseria, 
 M. A. Robb, J. R. Cheeseman, G. Scalmani, V. Barone, B. Mennucci, 
 G. A. Petersson, H. Nakatsuji, M. Caricato, X. Li, H. P. Hratchian, 
 A. F. Izmaylov, J. Bloino, G. Zheng, J. L. Sonnenberg, M. Hada, 
 M. Ehara, K. Toyota, R. Fukuda, J. Hasegawa, M. Ishida, T. Nakajima, 
 Y. Honda, O. Kitao, H. Nakai, T. Vreven, J. A. Montgomery, Jr., 
 J. E. Peralta, F. Ogliaro, M. Bearpark, J. J. Heyd, E. Brothers, 
 K. N. Kudin, V. N. Staroverov, T. Keith, R. Kobayashi, J. Normand, 
 K. Raghavachari, A. Rendell, J. C. Burant, S. S. Iyengar, J. Tomasi, 
 M. Cossi, N. Rega, J. M. Millam, M. Klene, J. E. Knox, J. B. Cross, 
 V. Bakken, C. Adamo, J. Jaramillo, R. Gomperts, R. E. Stratmann, 
 O. Yazyev, A. J. Austin, R. Cammi, C. Pomelli, J. W. Ochterski, 
 R. L. Martin, K. Morokuma, V. G. Zakrzewski, G. A. Voth, 
 P. Salvador, J. J. Dannenberg, S. Dapprich, A. D. Daniels, 
 O. Farkas, J. B. Foresman, J. V. Ortiz, J. Cioslowski, 
 and D. J. Fox, Gaussian, Inc., Wallingford CT, 2013.
 
 ******************************************
 Gaussian 09:  AS64L-G09RevD.01 24-Apr-2013
                19-Jan-2019 
 ******************************************
 %Chk=BLIND00740_mA
 %Mem=1GB
 %NProcShared=48
 Will use up to   48 processors via shared memory.
 ---------------------------------------------
 #T M05/Gen test Massage SCF=(fermi,maxcyc=60)
 ---------------------------------------------
 -------
 M05 opt
 -------
 Symbolic Z-matrix:
 Charge =  0 Multiplicity = 1
 6                     0.47659  -0.0425    0.9012 
 6                     0.00623   1.25771   0.5635 
 16                   -0.27615  -1.55145   0.40627 
 16                   -1.41269   1.5678   -0.44898 
 6                    -0.92013  -1.0854   -1.17873 
 6                    -1.3713    0.15211  -1.51438 
 6                     1.57155   0.06216   1.73512 
 7                     0.65179   2.28173   1.06598 
 16                    1.89046   1.73912   2.03664 
 6                    -0.97189  -2.16953  -2.10235 
 7                    -1.01652  -3.08921  -2.81185 
 6                    -1.91553   0.41056  -2.80703 
 7                    -2.39311   0.65903  -3.83714 
 6                     2.33741  -0.97808   2.31524 
 7                     2.97126  -1.81907   2.80724 
 
                    Distance matrix (angstroms):
                    1          2          3          4          5
     1  C    0.000000
     2  C    1.423315   0.000000
     3  S    1.757418   2.827694   0.000000
     4  S    2.825849   1.770477   3.428253   0.000000
     5  C    2.713774   3.063280   1.773167   2.795470   0.000000
     6  C    3.047557   2.727187   2.791121   1.772288   1.359281
     7  C    1.380327   2.291783   2.789903   3.992857   4.001979
     8  N    2.336642   1.310672   3.998700   2.658358   4.341342
     9  S    2.542129   2.439721   4.263822   4.137445   5.120151
    10  C    3.955208   4.450782   2.675676   4.110426   1.425163
    11  N    5.029770   5.597745   3.642685   5.237162   2.586817
    12  C    4.436049   3.971317   4.106384   2.674416   2.424897
    13  N    5.583831   5.047859   5.232040   3.642352   3.504263
    14  C    2.517432   3.674472   3.286888   5.309014   4.778168
    15  N    3.607292   4.826214   4.047461   6.425950   5.618639
                    6          7          8          9         10
     6  C    0.000000
     7  C    4.384939   0.000000
     8  N    3.909794   2.494036   0.000000
     9  S    5.076167   1.733444   1.664607   0.000000
    10  C    2.428007   5.116215   5.699860   6.371958   0.000000
    11  N    3.509330   6.107712   6.831389   7.434461   1.162408
    12  C    1.426163   5.736923   5.009263   6.301738   2.836178
    13  N    2.587713   6.864751   5.995430   7.349618   3.609722
    14  C    5.449573   1.416040   3.876636   2.767765   5.646781
    15  N    6.435818   2.578302   5.022796   3.797715   6.306769
                   11         12         13         14         15
    11  N    0.000000
    12  C    3.613393   0.000000
    13  N    4.122555   1.162293   0.000000
    14  C    6.480188   6.800997   7.931563   0.000000
    15  N    7.006418   7.769948   8.891861   1.162367   0.000000
 Symmetry turned off by external request.
 Framework group  C1[X(C8N4S3)]
 Deg. of freedom    39
 Rotational constants (GHZ):      0.7722167      0.3388923      0.2463240
   357 basis functions,   759 primitive gaussians,   387 cartesian basis functions
    62 alpha electrons       62 beta electrons
       nuclear repulsion energy      1166.1400397084 Hartrees.
 IMHF & INEx in M05                  599485                  400514
 NAtoms=   15 NActive=   15 NUniq=   15 SFac= 1.00D+00 NAtFMM=   60 NAOKFM=F Big=F
 PrsmSu:  requested number of processors reduced to:  34 ShMem   1 Linda.
 ExpMin= 3.99D-02 ExpMax= 1.11D+05 ExpMxC= 1.07D+03 IAcc=3 IRadAn=         5 AccDes= 0.00D+00
 Harris functional with IExCor= 1009 and IRadAn=       5 diagonalized for initial guess.
 HarFok:  IExCor= 1009 AccDes= 0.00D+00 IRadAn=         5 IDoV= 1 UseB2=F ITyADJ=14
 ICtDFT=  3500011 ScaDFX=  1.000000  1.000000  1.000000  1.000000
 FoFCou: FMM=F IPFlag=           0 FMFlag=      100000 FMFlg1=           0
         NFxFlg=           0 DoJE=T BraDBF=F KetDBF=T FulRan=T
         wScrn=  0.000000 ICntrl=     500 IOpCl=  0 I1Cent=   200000004 NGrid=           0
         NMat0=    1 NMatS0=      1 NMatT0=    0 NMatD0=    1 NMtDS0=    0 NMtDT0=    0
 Symmetry not used in FoFCou.
 SCF Done:  E(RM05) =  -1724.76146889     A.U. after   17 cycles
            NFock= 17  Conv=0.51D-08     -V/T= 2.0061

 **********************************************************************

            Population analysis using the SCF density.

 **********************************************************************

 Alpha  occ. eigenvalues --  -90.56430 -90.53634 -90.53182 -15.08621 -15.05416
 Alpha  occ. eigenvalues --  -15.04969 -15.04934 -10.89945 -10.89827 -10.89736
 Alpha  occ. eigenvalues --  -10.88751 -10.87413 -10.84946 -10.84332 -10.84311
 Alpha  occ. eigenvalues --   -8.57525  -8.55034  -8.54609  -6.40063  -6.39712
 Alpha  occ. eigenvalues --   -6.39401  -6.37595  -6.37281  -6.37163  -6.36853
 Alpha  occ. eigenvalues --   -6.36820  -6.36393  -1.20533  -1.12895  -1.12139
 Alpha  occ. eigenvalues --   -1.11338  -1.07643  -1.03801  -0.98824  -0.97396
 Alpha  occ. eigenvalues --   -0.88002  -0.84555  -0.82236  -0.73687  -0.71296
 Alpha  occ. eigenvalues --   -0.67838  -0.64612  -0.59530  -0.57258  -0.55386
 Alpha  occ. eigenvalues --   -0.53384  -0.52647  -0.52242  -0.51890  -0.50883
 Alpha  occ. eigenvalues --   -0.50387  -0.49356  -0.48216  -0.46804  -0.46075
 Alpha  occ. eigenvalues --   -0.45933  -0.45296  -0.43720  -0.43113  -0.39488
 Alpha  occ. eigenvalues --   -0.37627  -0.33119
 Alpha virt. eigenvalues --   -0.09329  -0.08268  -0.02099  -0.01262  -0.00506
 Alpha virt. eigenvalues --   -0.00361   0.00153   0.01254   0.02019   0.02228
 Alpha virt. eigenvalues --    0.02395   0.02956   0.03186   0.04004   0.04275
 Alpha virt. eigenvalues --    0.04487   0.05427   0.06008   0.06299   0.07067
 Alpha virt. eigenvalues --    0.07268   0.07525   0.07707   0.08290   0.08492
 Alpha virt. eigenvalues --    0.09377   0.10095   0.10393   0.10523   0.10805
 Alpha virt. eigenvalues --    0.11287   0.11391   0.11978   0.12525   0.13231
 Alpha virt. eigenvalues --    0.13490   0.13937   0.14454   0.15074   0.15191
 Alpha virt. eigenvalues --    0.15901   0.16267   0.16677   0.16812   0.17188
 Alpha virt. eigenvalues --    0.17360   0.17841   0.18612   0.19052   0.19561
 Alpha virt. eigenvalues --    0.19858   0.20240   0.20684   0.20948   0.21265
 Alpha virt. eigenvalues --    0.21877   0.22206   0.22584   0.22818   0.23616
 Alpha virt. eigenvalues --    0.23748   0.24110   0.24371   0.24702   0.25259
 Alpha virt. eigenvalues --    0.25694   0.25851   0.26227   0.26627   0.26748
 Alpha virt. eigenvalues --    0.27068   0.28334   0.29198   0.29662   0.30363
 Alpha virt. eigenvalues --    0.30712   0.32421   0.33457   0.34153   0.34717
 Alpha virt. eigenvalues --    0.34951   0.35470   0.36122   0.36935   0.37596
 Alpha virt. eigenvalues --    0.38151   0.39580   0.40729   0.41169   0.42050
 Alpha virt. eigenvalues --    0.42116   0.43487   0.44134   0.45739   0.45981
 Alpha virt. eigenvalues --    0.46954   0.48547   0.49571   0.50234   0.50591
 Alpha virt. eigenvalues --    0.51530   0.51858   0.53528   0.54169   0.54421
 Alpha virt. eigenvalues --    0.54701   0.55468   0.55732   0.55839   0.56452
 Alpha virt. eigenvalues --    0.57767   0.58139   0.58557   0.59215   0.60314
 Alpha virt. eigenvalues --    0.60554   0.61099   0.61588   0.62108   0.62711
 Alpha virt. eigenvalues --    0.63715   0.64716   0.64957   0.66009   0.66555
 Alpha virt. eigenvalues --    0.67686   0.68193   0.68807   0.70109   0.70415
 Alpha virt. eigenvalues --    0.71049   0.72859   0.73473   0.73853   0.75373
 Alpha virt. eigenvalues --    0.75565   0.76458   0.77062   0.77548   0.77847
 Alpha virt. eigenvalues --    0.78244   0.79256   0.79760   0.79879   0.81107
 Alpha virt. eigenvalues --    0.81535   0.82545   0.83276   0.83955   0.84871
 Alpha virt. eigenvalues --    0.85698   0.85940   0.87124   0.87250   0.88404
 Alpha virt. eigenvalues --    0.88459   0.89344   0.89667   0.89830   0.90733
 Alpha virt. eigenvalues --    0.91171   0.91722   0.92831   0.93722   0.94366
 Alpha virt. eigenvalues --    0.95433   0.95564   0.97327   0.98742   0.99313
 Alpha virt. eigenvalues --    0.99848   1.01206   1.02846   1.03574   1.04748
 Alpha virt. eigenvalues --    1.05759   1.06742   1.08036   1.08542   1.09636
 Alpha virt. eigenvalues --    1.10234   1.11401   1.13195   1.13604   1.14404
 Alpha virt. eigenvalues --    1.15322   1.17102   1.18344   1.20287   1.20632
 Alpha virt. eigenvalues --    1.21609   1.22699   1.23934   1.24221   1.26556
 Alpha virt. eigenvalues --    1.27346   1.29759   1.30247   1.32268   1.34124
 Alpha virt. eigenvalues --    1.37311   1.40082   1.40256   1.41566   1.42730
 Alpha virt. eigenvalues --    1.43615   1.45025   1.46463   1.47274   1.49372
 Alpha virt. eigenvalues --    1.49821   1.50474   1.51642   1.51868   1.52330
 Alpha virt. eigenvalues --    1.53716   1.54194   1.55432   1.56138   1.56450
 Alpha virt. eigenvalues --    1.56788   1.58487   1.59727   1.60390   1.60517
 Alpha virt. eigenvalues --    1.62129   1.63280   1.64922   1.66029   1.67547
 Alpha virt. eigenvalues --    1.68612   1.69176   1.70471   1.71325   1.74155
 Alpha virt. eigenvalues --    1.76827   1.77079   1.79014   1.79378   1.81041
 Alpha virt. eigenvalues --    1.82959   1.85921   1.88149   1.89703   1.90606
 Alpha virt. eigenvalues --    1.91369   1.94486   1.95007   1.97393   2.00540
 Alpha virt. eigenvalues --    2.00828   2.05447   2.07036   2.08350   2.08474
 Alpha virt. eigenvalues --    2.10899   2.13936   2.18604   2.20233   2.24592
 Alpha virt. eigenvalues --    2.27646   2.30685   2.37026   2.37401   2.38002
 Alpha virt. eigenvalues --    2.38279   2.39369   2.39930   2.40471   2.42150
 Alpha virt. eigenvalues --    2.42559   2.43754   2.45056   2.51016   2.54994
 Alpha virt. eigenvalues --    2.61157   2.64127   2.68329   2.71896   2.73264
 Alpha virt. eigenvalues --    2.76308   2.78779   2.81840   2.94680   2.99730
 Alpha virt. eigenvalues --    3.01879   3.09942   3.11450   3.15938   3.17850
 Alpha virt. eigenvalues --    3.24293   3.27129   3.35293   3.59307   3.74890
          Condensed to atoms (all electrons):
 Mulliken charges:
               1
     1  C    0.620316
     2  C   -0.108840
     3  S    0.374305
     4  S    0.296316
     5  C    1.040118
     6  C    1.132337
     7  C    0.786472
     8  N   -1.083310
     9  S    0.557143
    10  C   -1.130432
    11  N   -0.167980
    12  C   -1.100781
    13  N   -0.180207
    14  C   -0.852450
    15  N   -0.183008
 Sum of Mulliken charges =  -0.00000
 Mulliken charges with hydrogens summed into heavy atoms:
               1
     1  C    0.620316
     2  C   -0.108840
     3  S    0.374305
     4  S    0.296316
     5  C    1.040118
     6  C    1.132337
     7  C    0.786472
     8  N   -1.083310
     9  S    0.557143
    10  C   -1.130432
    11  N   -0.167980
    12  C   -1.100781
    13  N   -0.180207
    14  C   -0.852450
    15  N   -0.183008
 Electronic spatial extent (au):  <R**2>=           4013.7183
 Charge=              0.0000 electrons
 Dipole moment (field-independent basis, Debye):
    X=              0.4421    Y=              2.9227    Z=              3.6347  Tot=              4.6850

 Test job not archived.
 1\1\GINC-CHIMERA-NODE59\SP\RM05\Gen\C8N4S3\CONNORNM\19-Jan-2019\0\\#T 
 M05/Gen test Massage SCF=(fermi,maxcyc=60)\\M05 opt\\0,1\C,0,0.4765939
 6,-0.04249814,0.90119977\C,0,0.00622714,1.257711,0.56350479\S,0,-0.276
 147,-1.55145182,0.40626897\S,0,-1.41268538,1.5678035,-0.44897644\C,0,-
 0.92012691,-1.08540255,-1.17872631\C,0,-1.37129685,0.15210511,-1.51438
 169\C,0,1.57155252,0.06215621,1.73511608\N,0,0.65179224,2.28173269,1.0
 6598395\S,0,1.89046344,1.73911876,2.03664386\C,0,-0.97188792,-2.169529
 17,-2.10234957\N,0,-1.01652262,-3.08920613,-2.81185295\C,0,-1.91553473
 ,0.41055976,-2.80703333\N,0,-2.39311047,0.65902795,-3.8371358\C,0,2.33
 741393,-0.9780753,2.31523947\N,0,2.97125874,-1.81906807,2.80724337\\Ve
 rsion=AS64L-G09RevD.01\HF=-1724.7614689\RMSD=5.137e-09\Dipole=0.173922
 4,1.1498887,1.4300091\Quadrupole=5.3312854,0.265659,-5.5969444,4.80368
 52,-9.2353049,0.7195325\PG=C01 [X(C8N4S3)]\\@


 QUANTUM MECHANICS IS BOHRING -- M.S. GORDON
 Job cpu time:       0 days  1 hours 47 minutes 50.6 seconds.
 File lengths (MBytes):  RWF=     58 Int=      0 D2E=      0 Chk=      6 Scr=      1
 Normal termination of Gaussian 09 at Sat Jan 19 11:14:36 2019.
