 Entering Gaussian System, Link 0=/data/szalewicgrp/connornm/opt/Gaussian/g09-M05-par/g09/g09
 AtFile(1): blind-aug.gbs
 Initial command:
 /data/szalewicgrp/connornm/opt/Gaussian/g09-M05-par/g09/l1.exe "/scratch/local/Gau-27391.inp" -scrdir="/scratch/local/"
 Entering Link 1 = /data/szalewicgrp/connornm/opt/Gaussian/g09-M05-par/g09/l1.exe PID=     27392.
  
 Copyright (c) 1988,1990,1992,1993,1995,1998,2003,2009,2013,
            Gaussian, Inc.  All Rights Reserved.
  
 This is part of the Gaussian(R) 09 program.  It is based on
 the Gaussian(R) 03 system (copyright 2003, Gaussian, Inc.),
 the Gaussian(R) 98 system (copyright 1998, Gaussian, Inc.),
 the Gaussian(R) 94 system (copyright 1995, Gaussian, Inc.),
 the Gaussian 92(TM) system (copyright 1992, Gaussian, Inc.),
 the Gaussian 90(TM) system (copyright 1990, Gaussian, Inc.),
 the Gaussian 88(TM) system (copyright 1988, Gaussian, Inc.),
 the Gaussian 86(TM) system (copyright 1986, Carnegie Mellon
 University), and the Gaussian 82(TM) system (copyright 1983,
 Carnegie Mellon University). Gaussian is a federally registered
 trademark of Gaussian, Inc.
  
 This software contains proprietary and confidential information,
 including trade secrets, belonging to Gaussian, Inc.
  
 This software is provided under written license and may be
 used, copied, transmitted, or stored only in accord with that
 written license.
  
 The following legend is applicable only to US Government
 contracts under FAR:
  
                    RESTRICTED RIGHTS LEGEND
  
 Use, reproduction and disclosure by the US Government is
 subject to restrictions as set forth in subparagraphs (a)
 and (c) of the Commercial Computer Software - Restricted
 Rights clause in FAR 52.227-19.
  
 Gaussian, Inc.
 340 Quinnipiac St., Bldg. 40, Wallingford CT 06492
  
  
 ---------------------------------------------------------------
 Warning -- This program may not be used in any manner that
 competes with the business of Gaussian, Inc. or will provide
 assistance to any competitor of Gaussian, Inc.  The licensee
 of this program is prohibited from giving any competitor of
 Gaussian, Inc. access to this program.  By using this program,
 the user acknowledges that Gaussian, Inc. is engaged in the
 business of creating and licensing software in the field of
 computational chemistry and represents and warrants to the
 licensee that it is not a competitor of Gaussian, Inc. and that
 it will not use this program in any manner prohibited above.
 ---------------------------------------------------------------
  

 Cite this work as:
 Gaussian 09, Revision D.01,
 M. J. Frisch, G. W. Trucks, H. B. Schlegel, G. E. Scuseria, 
 M. A. Robb, J. R. Cheeseman, G. Scalmani, V. Barone, B. Mennucci, 
 G. A. Petersson, H. Nakatsuji, M. Caricato, X. Li, H. P. Hratchian, 
 A. F. Izmaylov, J. Bloino, G. Zheng, J. L. Sonnenberg, M. Hada, 
 M. Ehara, K. Toyota, R. Fukuda, J. Hasegawa, M. Ishida, T. Nakajima, 
 Y. Honda, O. Kitao, H. Nakai, T. Vreven, J. A. Montgomery, Jr., 
 J. E. Peralta, F. Ogliaro, M. Bearpark, J. J. Heyd, E. Brothers, 
 K. N. Kudin, V. N. Staroverov, T. Keith, R. Kobayashi, J. Normand, 
 K. Raghavachari, A. Rendell, J. C. Burant, S. S. Iyengar, J. Tomasi, 
 M. Cossi, N. Rega, J. M. Millam, M. Klene, J. E. Knox, J. B. Cross, 
 V. Bakken, C. Adamo, J. Jaramillo, R. Gomperts, R. E. Stratmann, 
 O. Yazyev, A. J. Austin, R. Cammi, C. Pomelli, J. W. Ochterski, 
 R. L. Martin, K. Morokuma, V. G. Zakrzewski, G. A. Voth, 
 P. Salvador, J. J. Dannenberg, S. Dapprich, A. D. Daniels, 
 O. Farkas, J. B. Foresman, J. V. Ortiz, J. Cioslowski, 
 and D. J. Fox, Gaussian, Inc., Wallingford CT, 2013.
 
 ******************************************
 Gaussian 09:  AS64L-G09RevD.01 24-Apr-2013
                19-Jan-2019 
 ******************************************
 %Chk=BLIND00088_mB
 %Mem=1GB
 %NProcShared=48
 Will use up to   48 processors via shared memory.
 ---------------------------------------------
 #T M05/Gen test Massage SCF=(fermi,maxcyc=60)
 ---------------------------------------------
 -------
 M05 opt
 -------
 Symbolic Z-matrix:
 Charge =  0 Multiplicity = 1
 6                     0.16282   0.10582   5.30393 
 6                    -0.97178  -0.69419   5.61777 
 16                    0.76518   1.43605   6.28177 
 16                   -1.95243  -0.49598   7.07846 
 6                     0.3505    0.85591   7.90522 
 6                    -0.72867   0.09098   8.21814 
 6                     0.67521  -0.27523   4.08019 
 7                    -1.32304  -1.60977   4.74818 
 16                   -0.30234  -1.55283   3.43446 
 6                     1.25302   1.3116    8.90965 
 7                     2.00167   1.7272    9.69578 
 6                    -0.99796  -0.28338   9.56769 
 7                    -1.27211  -0.58725   10.65555 
 6                     1.78747   0.26127   3.38722 
 7                     2.69188   0.69549   2.8002 
 
                    Distance matrix (angstroms):
                    1          2          3          4          5
     1  C    0.000000
     2  C    1.423315   0.000000
     3  S    1.757418   2.827694   0.000000
     4  S    2.825849   1.770477   3.428253   0.000000
     5  C    2.713774   3.063280   1.773167   2.795470   0.000000
     6  C    3.047557   2.727187   2.791121   1.772288   1.359281
     7  C    1.380327   2.291783   2.789903   3.992857   4.001979
     8  N    2.336642   1.310672   3.998700   2.658358   4.341342
     9  S    2.542129   2.439721   4.263822   4.137445   5.120151
    10  C    3.955208   4.450782   2.675676   4.110426   1.425163
    11  N    5.029770   5.597745   3.642685   5.237162   2.586817
    12  C    4.436049   3.971317   4.106384   2.674416   2.424897
    13  N    5.583831   5.047859   5.232040   3.642352   3.504263
    14  C    2.517432   3.674472   3.286888   5.309014   4.778168
    15  N    3.607292   4.826214   4.047461   6.425950   5.618639
                    6          7          8          9         10
     6  C    0.000000
     7  C    4.384939   0.000000
     8  N    3.909794   2.494036   0.000000
     9  S    5.076167   1.733444   1.664607   0.000000
    10  C    2.428007   5.116215   5.699860   6.371958   0.000000
    11  N    3.509330   6.107712   6.831389   7.434461   1.162408
    12  C    1.426163   5.736923   5.009263   6.301738   2.836178
    13  N    2.587713   6.864751   5.995430   7.349618   3.609722
    14  C    5.449573   1.416040   3.876636   2.767765   5.646781
    15  N    6.435818   2.578302   5.022796   3.797715   6.306769
                   11         12         13         14         15
    11  N    0.000000
    12  C    3.613393   0.000000
    13  N    4.122555   1.162293   0.000000
    14  C    6.480188   6.800997   7.931563   0.000000
    15  N    7.006418   7.769948   8.891861   1.162367   0.000000
 Symmetry turned off by external request.
 Framework group  C1[X(C8N4S3)]
 Deg. of freedom    39
 Rotational constants (GHZ):      0.7722167      0.3388923      0.2463240
   357 basis functions,   759 primitive gaussians,   387 cartesian basis functions
    62 alpha electrons       62 beta electrons
       nuclear repulsion energy      1166.1400393904 Hartrees.
 IMHF & INEx in M05                  599485                  400514
 NAtoms=   15 NActive=   15 NUniq=   15 SFac= 1.00D+00 NAtFMM=   60 NAOKFM=F Big=F
 PrsmSu:  requested number of processors reduced to:  34 ShMem   1 Linda.
 ExpMin= 3.99D-02 ExpMax= 1.11D+05 ExpMxC= 1.07D+03 IAcc=3 IRadAn=         5 AccDes= 0.00D+00
 Harris functional with IExCor= 1009 and IRadAn=       5 diagonalized for initial guess.
 HarFok:  IExCor= 1009 AccDes= 0.00D+00 IRadAn=         5 IDoV= 1 UseB2=F ITyADJ=14
 ICtDFT=  3500011 ScaDFX=  1.000000  1.000000  1.000000  1.000000
 FoFCou: FMM=F IPFlag=           0 FMFlag=      100000 FMFlg1=           0
         NFxFlg=           0 DoJE=T BraDBF=F KetDBF=T FulRan=T
         wScrn=  0.000000 ICntrl=     500 IOpCl=  0 I1Cent=   200000004 NGrid=           0
         NMat0=    1 NMatS0=      1 NMatT0=    0 NMatD0=    1 NMtDS0=    0 NMtDT0=    0
 Symmetry not used in FoFCou.
 SCF Done:  E(RM05) =  -1724.76149167     A.U. after   17 cycles
            NFock= 17  Conv=0.51D-08     -V/T= 2.0061

 **********************************************************************

            Population analysis using the SCF density.

 **********************************************************************

 Alpha  occ. eigenvalues --  -90.56430 -90.53635 -90.53183 -15.08622 -15.05416
 Alpha  occ. eigenvalues --  -15.04969 -15.04934 -10.89945 -10.89826 -10.89736
 Alpha  occ. eigenvalues --  -10.88752 -10.87414 -10.84946 -10.84332 -10.84311
 Alpha  occ. eigenvalues --   -8.57525  -8.55034  -8.54610  -6.40063  -6.39712
 Alpha  occ. eigenvalues --   -6.39401  -6.37596  -6.37281  -6.37164  -6.36854
 Alpha  occ. eigenvalues --   -6.36821  -6.36393  -1.20533  -1.12895  -1.12139
 Alpha  occ. eigenvalues --   -1.11337  -1.07643  -1.03801  -0.98825  -0.97396
 Alpha  occ. eigenvalues --   -0.88003  -0.84555  -0.82236  -0.73687  -0.71296
 Alpha  occ. eigenvalues --   -0.67838  -0.64612  -0.59530  -0.57258  -0.55386
 Alpha  occ. eigenvalues --   -0.53385  -0.52647  -0.52243  -0.51890  -0.50883
 Alpha  occ. eigenvalues --   -0.50387  -0.49357  -0.48216  -0.46805  -0.46075
 Alpha  occ. eigenvalues --   -0.45933  -0.45296  -0.43720  -0.43113  -0.39488
 Alpha  occ. eigenvalues --   -0.37628  -0.33120
 Alpha virt. eigenvalues --   -0.09329  -0.08268  -0.02099  -0.01262  -0.00507
 Alpha virt. eigenvalues --   -0.00361   0.00153   0.01255   0.02019   0.02228
 Alpha virt. eigenvalues --    0.02392   0.02955   0.03186   0.04004   0.04274
 Alpha virt. eigenvalues --    0.04486   0.05427   0.06004   0.06304   0.07067
 Alpha virt. eigenvalues --    0.07266   0.07526   0.07706   0.08290   0.08495
 Alpha virt. eigenvalues --    0.09374   0.10091   0.10390   0.10524   0.10810
 Alpha virt. eigenvalues --    0.11289   0.11391   0.11978   0.12525   0.13232
 Alpha virt. eigenvalues --    0.13487   0.13932   0.14452   0.15076   0.15191
 Alpha virt. eigenvalues --    0.15899   0.16271   0.16679   0.16812   0.17190
 Alpha virt. eigenvalues --    0.17355   0.17843   0.18613   0.19045   0.19569
 Alpha virt. eigenvalues --    0.19860   0.20238   0.20687   0.20947   0.21270
 Alpha virt. eigenvalues --    0.21884   0.22209   0.22583   0.22827   0.23613
 Alpha virt. eigenvalues --    0.23748   0.24110   0.24368   0.24706   0.25257
 Alpha virt. eigenvalues --    0.25692   0.25855   0.26222   0.26619   0.26747
 Alpha virt. eigenvalues --    0.27070   0.28334   0.29190   0.29661   0.30364
 Alpha virt. eigenvalues --    0.30710   0.32418   0.33452   0.34155   0.34715
 Alpha virt. eigenvalues --    0.34949   0.35470   0.36120   0.36935   0.37593
 Alpha virt. eigenvalues --    0.38148   0.39577   0.40728   0.41169   0.42051
 Alpha virt. eigenvalues --    0.42119   0.43484   0.44132   0.45733   0.45982
 Alpha virt. eigenvalues --    0.46953   0.48541   0.49571   0.50229   0.50592
 Alpha virt. eigenvalues --    0.51527   0.51855   0.53527   0.54163   0.54421
 Alpha virt. eigenvalues --    0.54701   0.55464   0.55731   0.55834   0.56450
 Alpha virt. eigenvalues --    0.57771   0.58138   0.58556   0.59215   0.60312
 Alpha virt. eigenvalues --    0.60552   0.61101   0.61589   0.62107   0.62711
 Alpha virt. eigenvalues --    0.63715   0.64718   0.64953   0.66008   0.66557
 Alpha virt. eigenvalues --    0.67691   0.68189   0.68806   0.70108   0.70414
 Alpha virt. eigenvalues --    0.71049   0.72861   0.73467   0.73853   0.75372
 Alpha virt. eigenvalues --    0.75562   0.76458   0.77062   0.77551   0.77844
 Alpha virt. eigenvalues --    0.78247   0.79253   0.79763   0.79880   0.81106
 Alpha virt. eigenvalues --    0.81537   0.82547   0.83279   0.83955   0.84869
 Alpha virt. eigenvalues --    0.85699   0.85940   0.87126   0.87246   0.88402
 Alpha virt. eigenvalues --    0.88459   0.89345   0.89665   0.89828   0.90731
 Alpha virt. eigenvalues --    0.91169   0.91722   0.92830   0.93721   0.94369
 Alpha virt. eigenvalues --    0.95430   0.95569   0.97322   0.98744   0.99309
 Alpha virt. eigenvalues --    0.99847   1.01202   1.02850   1.03572   1.04747
 Alpha virt. eigenvalues --    1.05758   1.06748   1.08039   1.08543   1.09635
 Alpha virt. eigenvalues --    1.10234   1.11401   1.13198   1.13606   1.14402
 Alpha virt. eigenvalues --    1.15322   1.17102   1.18343   1.20284   1.20632
 Alpha virt. eigenvalues --    1.21607   1.22702   1.23937   1.24221   1.26556
 Alpha virt. eigenvalues --    1.27347   1.29756   1.30250   1.32270   1.34125
 Alpha virt. eigenvalues --    1.37310   1.40082   1.40255   1.41566   1.42729
 Alpha virt. eigenvalues --    1.43617   1.45022   1.46461   1.47273   1.49368
 Alpha virt. eigenvalues --    1.49821   1.50474   1.51640   1.51867   1.52333
 Alpha virt. eigenvalues --    1.53713   1.54191   1.55431   1.56136   1.56449
 Alpha virt. eigenvalues --    1.56787   1.58485   1.59724   1.60387   1.60512
 Alpha virt. eigenvalues --    1.62130   1.63278   1.64921   1.66028   1.67547
 Alpha virt. eigenvalues --    1.68615   1.69172   1.70468   1.71326   1.74150
 Alpha virt. eigenvalues --    1.76826   1.77077   1.79015   1.79375   1.81041
 Alpha virt. eigenvalues --    1.82960   1.85920   1.88148   1.89703   1.90606
 Alpha virt. eigenvalues --    1.91370   1.94485   1.95006   1.97396   2.00540
 Alpha virt. eigenvalues --    2.00828   2.05448   2.07036   2.08350   2.08473
 Alpha virt. eigenvalues --    2.10898   2.13936   2.18606   2.20235   2.24593
 Alpha virt. eigenvalues --    2.27647   2.30685   2.37027   2.37401   2.38002
 Alpha virt. eigenvalues --    2.38279   2.39370   2.39931   2.40471   2.42150
 Alpha virt. eigenvalues --    2.42561   2.43755   2.45058   2.51018   2.54996
 Alpha virt. eigenvalues --    2.61157   2.64128   2.68329   2.71897   2.73264
 Alpha virt. eigenvalues --    2.76309   2.78780   2.81841   2.94679   2.99730
 Alpha virt. eigenvalues --    3.01877   3.09942   3.11448   3.15939   3.17850
 Alpha virt. eigenvalues --    3.24294   3.27127   3.35292   3.59307   3.74895
          Condensed to atoms (all electrons):
 Mulliken charges:
               1
     1  C    0.619860
     2  C   -0.108474
     3  S    0.374021
     4  S    0.296526
     5  C    1.040149
     6  C    1.131405
     7  C    0.786759
     8  N   -1.083140
     9  S    0.557077
    10  C   -1.129720
    11  N   -0.167998
    12  C   -1.100115
    13  N   -0.180402
    14  C   -0.853040
    15  N   -0.182908
 Sum of Mulliken charges =  -0.00000
 Mulliken charges with hydrogens summed into heavy atoms:
               1
     1  C    0.619860
     2  C   -0.108474
     3  S    0.374021
     4  S    0.296526
     5  C    1.040149
     6  C    1.131405
     7  C    0.786759
     8  N   -1.083140
     9  S    0.557077
    10  C   -1.129720
    11  N   -0.167998
    12  C   -1.100115
    13  N   -0.180402
    14  C   -0.853040
    15  N   -0.182908
 Electronic spatial extent (au):  <R**2>=          21658.9674
 Charge=             -0.0000 electrons
 Dipole moment (field-independent basis, Debye):
    X=             -2.4755    Y=             -0.9598    Z=             -3.8601  Tot=              4.6851

 Test job not archived.
 1\1\GINC-CHIMERA-NODE24\SP\RM05\Gen\C8N4S3\CONNORNM\19-Jan-2019\0\\#T 
 M05/Gen test Massage SCF=(fermi,maxcyc=60)\\M05 opt\\0,1\C,0,0.1628199
 9,0.10582151,5.30393187\C,0,-0.97178318,-0.69418508,5.61776586\S,0,0.7
 6518227,1.43605054,6.28176981\S,0,-1.95243475,-0.49598475,7.07846003\C
 ,0,0.3504953,0.85591338,7.9052222\C,0,-0.72867026,0.09097808,8.2181435
 \C,0,0.67521337,-0.27523421,4.08018648\N,0,-1.32304432,-1.60976554,4.7
 4817512\S,0,-0.30234395,-1.55282818,3.43446062\C,0,1.25302417,1.311601
 94,8.909652\N,0,2.00167037,1.72719869,9.69578255\C,0,-0.99795743,-0.28
 338162,9.567692\N,0,-1.2721095,-0.58725016,10.65554801\C,0,1.78747334,
 0.26127088,3.3872157\N,0,2.69188261,0.69549424,2.80019793\\Version=AS6
 4L-G09RevD.01\HF=-1724.7614917\RMSD=5.143e-09\Dipole=-0.9739452,-0.377
 6174,-1.5186786\Quadrupole=13.0770056,20.7910742,-33.8680798,-5.864716
 9,-7.9935576,-2.1906786\PG=C01 [X(C8N4S3)]\\@


 WHAT THE SLIME CONTAINS, THE GLOWING REVEALS
 BY THE FLAME'S BRIGHT HUE WHEN YOU IGNITE IT.
   --  LEONARD THURNEYSSER, 1531-1596
 DESCRIBING HIS FLAME PHOTOLYSIS ANALYTIC METHOD
 Job cpu time:       0 days  1 hours 36 minutes 47.9 seconds.
 File lengths (MBytes):  RWF=     58 Int=      0 D2E=      0 Chk=      6 Scr=      1
 Normal termination of Gaussian 09 at Sat Jan 19 11:18:03 2019.
