 Entering Gaussian System, Link 0=/data/szalewicgrp/connornm/opt/Gaussian/g09-M05-par/g09/g09
 AtFile(1): blind-aug.gbs
 Initial command:
 /data/szalewicgrp/connornm/opt/Gaussian/g09-M05-par/g09/l1.exe "/scratch/local/Gau-4611.inp" -scrdir="/scratch/local/"
 Entering Link 1 = /data/szalewicgrp/connornm/opt/Gaussian/g09-M05-par/g09/l1.exe PID=      4612.
  
 Copyright (c) 1988,1990,1992,1993,1995,1998,2003,2009,2013,
            Gaussian, Inc.  All Rights Reserved.
  
 This is part of the Gaussian(R) 09 program.  It is based on
 the Gaussian(R) 03 system (copyright 2003, Gaussian, Inc.),
 the Gaussian(R) 98 system (copyright 1998, Gaussian, Inc.),
 the Gaussian(R) 94 system (copyright 1995, Gaussian, Inc.),
 the Gaussian 92(TM) system (copyright 1992, Gaussian, Inc.),
 the Gaussian 90(TM) system (copyright 1990, Gaussian, Inc.),
 the Gaussian 88(TM) system (copyright 1988, Gaussian, Inc.),
 the Gaussian 86(TM) system (copyright 1986, Carnegie Mellon
 University), and the Gaussian 82(TM) system (copyright 1983,
 Carnegie Mellon University). Gaussian is a federally registered
 trademark of Gaussian, Inc.
  
 This software contains proprietary and confidential information,
 including trade secrets, belonging to Gaussian, Inc.
  
 This software is provided under written license and may be
 used, copied, transmitted, or stored only in accord with that
 written license.
  
 The following legend is applicable only to US Government
 contracts under FAR:
  
                    RESTRICTED RIGHTS LEGEND
  
 Use, reproduction and disclosure by the US Government is
 subject to restrictions as set forth in subparagraphs (a)
 and (c) of the Commercial Computer Software - Restricted
 Rights clause in FAR 52.227-19.
  
 Gaussian, Inc.
 340 Quinnipiac St., Bldg. 40, Wallingford CT 06492
  
  
 ---------------------------------------------------------------
 Warning -- This program may not be used in any manner that
 competes with the business of Gaussian, Inc. or will provide
 assistance to any competitor of Gaussian, Inc.  The licensee
 of this program is prohibited from giving any competitor of
 Gaussian, Inc. access to this program.  By using this program,
 the user acknowledges that Gaussian, Inc. is engaged in the
 business of creating and licensing software in the field of
 computational chemistry and represents and warrants to the
 licensee that it is not a competitor of Gaussian, Inc. and that
 it will not use this program in any manner prohibited above.
 ---------------------------------------------------------------
  

 Cite this work as:
 Gaussian 09, Revision D.01,
 M. J. Frisch, G. W. Trucks, H. B. Schlegel, G. E. Scuseria, 
 M. A. Robb, J. R. Cheeseman, G. Scalmani, V. Barone, B. Mennucci, 
 G. A. Petersson, H. Nakatsuji, M. Caricato, X. Li, H. P. Hratchian, 
 A. F. Izmaylov, J. Bloino, G. Zheng, J. L. Sonnenberg, M. Hada, 
 M. Ehara, K. Toyota, R. Fukuda, J. Hasegawa, M. Ishida, T. Nakajima, 
 Y. Honda, O. Kitao, H. Nakai, T. Vreven, J. A. Montgomery, Jr., 
 J. E. Peralta, F. Ogliaro, M. Bearpark, J. J. Heyd, E. Brothers, 
 K. N. Kudin, V. N. Staroverov, T. Keith, R. Kobayashi, J. Normand, 
 K. Raghavachari, A. Rendell, J. C. Burant, S. S. Iyengar, J. Tomasi, 
 M. Cossi, N. Rega, J. M. Millam, M. Klene, J. E. Knox, J. B. Cross, 
 V. Bakken, C. Adamo, J. Jaramillo, R. Gomperts, R. E. Stratmann, 
 O. Yazyev, A. J. Austin, R. Cammi, C. Pomelli, J. W. Ochterski, 
 R. L. Martin, K. Morokuma, V. G. Zakrzewski, G. A. Voth, 
 P. Salvador, J. J. Dannenberg, S. Dapprich, A. D. Daniels, 
 O. Farkas, J. B. Foresman, J. V. Ortiz, J. Cioslowski, 
 and D. J. Fox, Gaussian, Inc., Wallingford CT, 2013.
 
 ******************************************
 Gaussian 09:  AS64L-G09RevD.01 24-Apr-2013
                19-Jan-2019 
 ******************************************
 %Chk=BLIND01263_mA
 %Mem=1GB
 %NProcShared=48
 Will use up to   48 processors via shared memory.
 ---------------------------------------------
 #T M05/Gen test Massage SCF=(fermi,maxcyc=60)
 ---------------------------------------------
 -------
 M05 opt
 -------
 Symbolic Z-matrix:
 Charge =  0 Multiplicity = 1
 6                     0.42985   0.43267  -0.81801 
 6                     0.4427   -0.99022  -0.85023 
 16                    0.49355   1.41279   0.63933 
 16                    0.49334  -2.01514   0.59253 
 6                    -0.38063   0.36436   1.77101 
 6                    -0.37764  -0.99477   1.75065 
 6                     0.43201   0.92613  -2.10711 
 7                     0.45073  -1.56656  -2.02736 
 16                    0.47618  -0.4037   -3.21816 
 6                    -1.083     1.08958   2.77691 
 7                    -1.61943   1.72355   3.59024 
 6                    -1.07884  -1.74635   2.73928 
 7                    -1.61118  -2.39869   3.54052 
 6                     0.43314   2.27714  -2.5313 
 7                     0.44351   3.3803   -2.89739 
 
                    Distance matrix (angstroms):
                    1          2          3          4          5
     1  C    0.000000
     2  C    1.423315   0.000000
     3  S    1.757418   2.827694   0.000000
     4  S    2.825849   1.770477   3.428253   0.000000
     5  C    2.713774   3.063280   1.773167   2.795470   0.000000
     6  C    3.047557   2.727187   2.791121   1.772288   1.359281
     7  C    1.380327   2.291783   2.789903   3.992857   4.001979
     8  N    2.336642   1.310672   3.998700   2.658358   4.341342
     9  S    2.542129   2.439721   4.263822   4.137445   5.120151
    10  C    3.955208   4.450782   2.675676   4.110426   1.425163
    11  N    5.029770   5.597745   3.642685   5.237162   2.586817
    12  C    4.436049   3.971317   4.106384   2.674416   2.424897
    13  N    5.583831   5.047859   5.232040   3.642352   3.504263
    14  C    2.517432   3.674472   3.286888   5.309014   4.778168
    15  N    3.607292   4.826214   4.047461   6.425950   5.618639
                    6          7          8          9         10
     6  C    0.000000
     7  C    4.384939   0.000000
     8  N    3.909794   2.494036   0.000000
     9  S    5.076167   1.733444   1.664607   0.000000
    10  C    2.428007   5.116215   5.699860   6.371958   0.000000
    11  N    3.509330   6.107712   6.831389   7.434461   1.162408
    12  C    1.426163   5.736923   5.009263   6.301738   2.836178
    13  N    2.587713   6.864751   5.995430   7.349618   3.609722
    14  C    5.449573   1.416040   3.876636   2.767765   5.646781
    15  N    6.435818   2.578302   5.022796   3.797715   6.306769
                   11         12         13         14         15
    11  N    0.000000
    12  C    3.613393   0.000000
    13  N    4.122555   1.162293   0.000000
    14  C    6.480188   6.800997   7.931563   0.000000
    15  N    7.006418   7.769948   8.891861   1.162367   0.000000
 Symmetry turned off by external request.
 Framework group  C1[X(C8N4S3)]
 Deg. of freedom    39
 Rotational constants (GHZ):      0.7722167      0.3388923      0.2463240
   357 basis functions,   759 primitive gaussians,   387 cartesian basis functions
    62 alpha electrons       62 beta electrons
       nuclear repulsion energy      1166.1400392494 Hartrees.
 IMHF & INEx in M05                  599485                  400514
 NAtoms=   15 NActive=   15 NUniq=   15 SFac= 1.00D+00 NAtFMM=   60 NAOKFM=F Big=F
 PrsmSu:  requested number of processors reduced to:  34 ShMem   1 Linda.
 ExpMin= 3.99D-02 ExpMax= 1.11D+05 ExpMxC= 1.07D+03 IAcc=3 IRadAn=         5 AccDes= 0.00D+00
 Harris functional with IExCor= 1009 and IRadAn=       5 diagonalized for initial guess.
 HarFok:  IExCor= 1009 AccDes= 0.00D+00 IRadAn=         5 IDoV= 1 UseB2=F ITyADJ=14
 ICtDFT=  3500011 ScaDFX=  1.000000  1.000000  1.000000  1.000000
 FoFCou: FMM=F IPFlag=           0 FMFlag=      100000 FMFlg1=           0
         NFxFlg=           0 DoJE=T BraDBF=F KetDBF=T FulRan=T
         wScrn=  0.000000 ICntrl=     500 IOpCl=  0 I1Cent=   200000004 NGrid=           0
         NMat0=    1 NMatS0=      1 NMatT0=    0 NMatD0=    1 NMtDS0=    0 NMtDT0=    0
 Symmetry not used in FoFCou.
 SCF Done:  E(RM05) =  -1724.76148540     A.U. after   17 cycles
            NFock= 17  Conv=0.51D-08     -V/T= 2.0061

 **********************************************************************

            Population analysis using the SCF density.

 **********************************************************************

 Alpha  occ. eigenvalues --  -90.56429 -90.53636 -90.53182 -15.08623 -15.05416
 Alpha  occ. eigenvalues --  -15.04970 -15.04934 -10.89945 -10.89827 -10.89736
 Alpha  occ. eigenvalues --  -10.88752 -10.87413 -10.84946 -10.84332 -10.84311
 Alpha  occ. eigenvalues --   -8.57524  -8.55036  -8.54610  -6.40062  -6.39711
 Alpha  occ. eigenvalues --   -6.39400  -6.37598  -6.37283  -6.37163  -6.36853
 Alpha  occ. eigenvalues --   -6.36822  -6.36393  -1.20534  -1.12896  -1.12138
 Alpha  occ. eigenvalues --   -1.11338  -1.07644  -1.03801  -0.98824  -0.97396
 Alpha  occ. eigenvalues --   -0.88003  -0.84555  -0.82236  -0.73687  -0.71297
 Alpha  occ. eigenvalues --   -0.67839  -0.64612  -0.59530  -0.57258  -0.55386
 Alpha  occ. eigenvalues --   -0.53385  -0.52647  -0.52243  -0.51891  -0.50884
 Alpha  occ. eigenvalues --   -0.50387  -0.49356  -0.48216  -0.46805  -0.46075
 Alpha  occ. eigenvalues --   -0.45933  -0.45296  -0.43720  -0.43113  -0.39489
 Alpha  occ. eigenvalues --   -0.37628  -0.33120
 Alpha virt. eigenvalues --   -0.09330  -0.08268  -0.02100  -0.01262  -0.00509
 Alpha virt. eigenvalues --   -0.00360   0.00153   0.01255   0.02019   0.02230
 Alpha virt. eigenvalues --    0.02393   0.02958   0.03187   0.04003   0.04274
 Alpha virt. eigenvalues --    0.04486   0.05428   0.06003   0.06302   0.07065
 Alpha virt. eigenvalues --    0.07266   0.07528   0.07707   0.08291   0.08495
 Alpha virt. eigenvalues --    0.09370   0.10092   0.10385   0.10525   0.10810
 Alpha virt. eigenvalues --    0.11288   0.11394   0.11979   0.12529   0.13228
 Alpha virt. eigenvalues --    0.13487   0.13933   0.14454   0.15080   0.15194
 Alpha virt. eigenvalues --    0.15899   0.16271   0.16679   0.16812   0.17187
 Alpha virt. eigenvalues --    0.17362   0.17845   0.18616   0.19042   0.19567
 Alpha virt. eigenvalues --    0.19861   0.20243   0.20685   0.20947   0.21267
 Alpha virt. eigenvalues --    0.21878   0.22209   0.22583   0.22810   0.23615
 Alpha virt. eigenvalues --    0.23741   0.24103   0.24364   0.24703   0.25257
 Alpha virt. eigenvalues --    0.25690   0.25859   0.26224   0.26620   0.26747
 Alpha virt. eigenvalues --    0.27069   0.28337   0.29194   0.29662   0.30367
 Alpha virt. eigenvalues --    0.30712   0.32421   0.33449   0.34155   0.34715
 Alpha virt. eigenvalues --    0.34947   0.35471   0.36119   0.36937   0.37591
 Alpha virt. eigenvalues --    0.38151   0.39574   0.40727   0.41171   0.42049
 Alpha virt. eigenvalues --    0.42126   0.43485   0.44134   0.45735   0.45969
 Alpha virt. eigenvalues --    0.46956   0.48535   0.49562   0.50225   0.50592
 Alpha virt. eigenvalues --    0.51522   0.51853   0.53525   0.54164   0.54421
 Alpha virt. eigenvalues --    0.54698   0.55464   0.55729   0.55837   0.56447
 Alpha virt. eigenvalues --    0.57763   0.58130   0.58550   0.59213   0.60312
 Alpha virt. eigenvalues --    0.60553   0.61096   0.61587   0.62104   0.62710
 Alpha virt. eigenvalues --    0.63707   0.64712   0.64953   0.66005   0.66555
 Alpha virt. eigenvalues --    0.67689   0.68188   0.68808   0.70106   0.70416
 Alpha virt. eigenvalues --    0.71049   0.72860   0.73469   0.73855   0.75373
 Alpha virt. eigenvalues --    0.75567   0.76458   0.77061   0.77549   0.77841
 Alpha virt. eigenvalues --    0.78245   0.79255   0.79763   0.79880   0.81111
 Alpha virt. eigenvalues --    0.81533   0.82543   0.83280   0.83955   0.84871
 Alpha virt. eigenvalues --    0.85699   0.85940   0.87124   0.87248   0.88402
 Alpha virt. eigenvalues --    0.88458   0.89344   0.89666   0.89827   0.90730
 Alpha virt. eigenvalues --    0.91169   0.91722   0.92830   0.93722   0.94368
 Alpha virt. eigenvalues --    0.95432   0.95567   0.97327   0.98744   0.99314
 Alpha virt. eigenvalues --    0.99847   1.01205   1.02845   1.03577   1.04751
 Alpha virt. eigenvalues --    1.05757   1.06746   1.08039   1.08544   1.09638
 Alpha virt. eigenvalues --    1.10235   1.11403   1.13196   1.13608   1.14403
 Alpha virt. eigenvalues --    1.15319   1.17101   1.18341   1.20283   1.20631
 Alpha virt. eigenvalues --    1.21607   1.22700   1.23932   1.24216   1.26555
 Alpha virt. eigenvalues --    1.27345   1.29757   1.30251   1.32269   1.34125
 Alpha virt. eigenvalues --    1.37312   1.40082   1.40258   1.41566   1.42728
 Alpha virt. eigenvalues --    1.43617   1.45024   1.46462   1.47274   1.49371
 Alpha virt. eigenvalues --    1.49827   1.50474   1.51644   1.51868   1.52333
 Alpha virt. eigenvalues --    1.53714   1.54192   1.55431   1.56136   1.56447
 Alpha virt. eigenvalues --    1.56788   1.58485   1.59729   1.60391   1.60516
 Alpha virt. eigenvalues --    1.62128   1.63281   1.64921   1.66028   1.67548
 Alpha virt. eigenvalues --    1.68611   1.69173   1.70470   1.71324   1.74149
 Alpha virt. eigenvalues --    1.76827   1.77076   1.79011   1.79377   1.81034
 Alpha virt. eigenvalues --    1.82957   1.85916   1.88153   1.89701   1.90607
 Alpha virt. eigenvalues --    1.91369   1.94483   1.95004   1.97397   2.00536
 Alpha virt. eigenvalues --    2.00825   2.05449   2.07034   2.08347   2.08474
 Alpha virt. eigenvalues --    2.10896   2.13936   2.18606   2.20232   2.24595
 Alpha virt. eigenvalues --    2.27651   2.30685   2.37026   2.37403   2.38002
 Alpha virt. eigenvalues --    2.38280   2.39369   2.39930   2.40468   2.42149
 Alpha virt. eigenvalues --    2.42560   2.43755   2.45056   2.51023   2.54996
 Alpha virt. eigenvalues --    2.61168   2.64118   2.68329   2.71897   2.73264
 Alpha virt. eigenvalues --    2.76307   2.78779   2.81843   2.94680   2.99731
 Alpha virt. eigenvalues --    3.01878   3.09944   3.11451   3.15941   3.17849
 Alpha virt. eigenvalues --    3.24292   3.27128   3.35295   3.59314   3.74892
          Condensed to atoms (all electrons):
 Mulliken charges:
               1
     1  C    0.619952
     2  C   -0.109593
     3  S    0.374181
     4  S    0.296609
     5  C    1.041117
     6  C    1.130878
     7  C    0.787075
     8  N   -1.082877
     9  S    0.557567
    10  C   -1.130396
    11  N   -0.167730
    12  C   -1.100159
    13  N   -0.180263
    14  C   -0.853369
    15  N   -0.182993
 Sum of Mulliken charges =  -0.00000
 Mulliken charges with hydrogens summed into heavy atoms:
               1
     1  C    0.619952
     2  C   -0.109593
     3  S    0.374181
     4  S    0.296609
     5  C    1.041117
     6  C    1.130878
     7  C    0.787075
     8  N   -1.082877
     9  S    0.557567
    10  C   -1.130396
    11  N   -0.167730
    12  C   -1.100159
    13  N   -0.180263
    14  C   -0.853369
    15  N   -0.182993
 Electronic spatial extent (au):  <R**2>=           4013.7189
 Charge=              0.0000 electrons
 Dipole moment (field-independent basis, Debye):
    X=              2.6225    Y=             -1.5579    Z=             -3.5556  Tot=              4.6848

 Test job not archived.
 1\1\GINC-CHIMERA-NODE62\SP\RM05\Gen\C8N4S3\CONNORNM\19-Jan-2019\0\\#T 
 M05/Gen test Massage SCF=(fermi,maxcyc=60)\\M05 opt\\0,1\C,0,0.4298514
 5,0.43266956,-0.81800593\C,0,0.44269585,-0.99022301,-0.85023065\S,0,0.
 49354914,1.41279373,0.63932583\S,0,0.49333851,-2.01513982,0.59253377\C
 ,0,-0.38062931,0.36435905,1.77101433\C,0,-0.37764456,-0.9947658,1.7506
 4803\C,0,0.43200682,0.92612761,-2.10711326\N,0,0.45073412,-1.56656267,
 -2.02735766\S,0,0.47618462,-0.40369996,-3.2181639\C,0,-1.08299763,1.08
 957578,2.77691149\N,0,-1.61942563,1.7235537,3.59024415\C,0,-1.07884365
 ,-1.74634975,2.73927503\N,0,-1.61117968,-2.39869293,3.54051959\C,0,0.4
 3314368,2.27713831,-2.53130335\N,0,0.44350986,3.38030202,-2.89738843\\
 Version=AS64L-G09RevD.01\HF=-1724.7614854\RMSD=5.107e-09\Dipole=1.0317
 862,-0.612944,-1.3988699\Quadrupole=7.2997158,-4.4506016,-2.8491142,-1
 .218953,8.0024659,5.7153887\PG=C01 [X(C8N4S3)]\\@


 TOWERING GENIUS DISDAINS A BEATEN PATH.  IT SEEKS 
 REGIONS HITHERTO UNEXPLORED.

                                -- ABRAHAM LINCOLN
 Job cpu time:       0 days  2 hours  4 minutes 51.0 seconds.
 File lengths (MBytes):  RWF=     58 Int=      0 D2E=      0 Chk=      6 Scr=      1
 Normal termination of Gaussian 09 at Sat Jan 19 10:44:11 2019.
