 Entering Gaussian System, Link 0=/data/szalewicgrp/connornm/opt/Gaussian/g09-M05-par/g09/g09
 AtFile(1): blind-aug.gbs
 Initial command:
 /data/szalewicgrp/connornm/opt/Gaussian/g09-M05-par/g09/l1.exe "/scratch/local/Gau-28773.inp" -scrdir="/scratch/local/"
 Entering Link 1 = /data/szalewicgrp/connornm/opt/Gaussian/g09-M05-par/g09/l1.exe PID=     28774.
  
 Copyright (c) 1988,1990,1992,1993,1995,1998,2003,2009,2013,
            Gaussian, Inc.  All Rights Reserved.
  
 This is part of the Gaussian(R) 09 program.  It is based on
 the Gaussian(R) 03 system (copyright 2003, Gaussian, Inc.),
 the Gaussian(R) 98 system (copyright 1998, Gaussian, Inc.),
 the Gaussian(R) 94 system (copyright 1995, Gaussian, Inc.),
 the Gaussian 92(TM) system (copyright 1992, Gaussian, Inc.),
 the Gaussian 90(TM) system (copyright 1990, Gaussian, Inc.),
 the Gaussian 88(TM) system (copyright 1988, Gaussian, Inc.),
 the Gaussian 86(TM) system (copyright 1986, Carnegie Mellon
 University), and the Gaussian 82(TM) system (copyright 1983,
 Carnegie Mellon University). Gaussian is a federally registered
 trademark of Gaussian, Inc.
  
 This software contains proprietary and confidential information,
 including trade secrets, belonging to Gaussian, Inc.
  
 This software is provided under written license and may be
 used, copied, transmitted, or stored only in accord with that
 written license.
  
 The following legend is applicable only to US Government
 contracts under FAR:
  
                    RESTRICTED RIGHTS LEGEND
  
 Use, reproduction and disclosure by the US Government is
 subject to restrictions as set forth in subparagraphs (a)
 and (c) of the Commercial Computer Software - Restricted
 Rights clause in FAR 52.227-19.
  
 Gaussian, Inc.
 340 Quinnipiac St., Bldg. 40, Wallingford CT 06492
  
  
 ---------------------------------------------------------------
 Warning -- This program may not be used in any manner that
 competes with the business of Gaussian, Inc. or will provide
 assistance to any competitor of Gaussian, Inc.  The licensee
 of this program is prohibited from giving any competitor of
 Gaussian, Inc. access to this program.  By using this program,
 the user acknowledges that Gaussian, Inc. is engaged in the
 business of creating and licensing software in the field of
 computational chemistry and represents and warrants to the
 licensee that it is not a competitor of Gaussian, Inc. and that
 it will not use this program in any manner prohibited above.
 ---------------------------------------------------------------
  

 Cite this work as:
 Gaussian 09, Revision D.01,
 M. J. Frisch, G. W. Trucks, H. B. Schlegel, G. E. Scuseria, 
 M. A. Robb, J. R. Cheeseman, G. Scalmani, V. Barone, B. Mennucci, 
 G. A. Petersson, H. Nakatsuji, M. Caricato, X. Li, H. P. Hratchian, 
 A. F. Izmaylov, J. Bloino, G. Zheng, J. L. Sonnenberg, M. Hada, 
 M. Ehara, K. Toyota, R. Fukuda, J. Hasegawa, M. Ishida, T. Nakajima, 
 Y. Honda, O. Kitao, H. Nakai, T. Vreven, J. A. Montgomery, Jr., 
 J. E. Peralta, F. Ogliaro, M. Bearpark, J. J. Heyd, E. Brothers, 
 K. N. Kudin, V. N. Staroverov, T. Keith, R. Kobayashi, J. Normand, 
 K. Raghavachari, A. Rendell, J. C. Burant, S. S. Iyengar, J. Tomasi, 
 M. Cossi, N. Rega, J. M. Millam, M. Klene, J. E. Knox, J. B. Cross, 
 V. Bakken, C. Adamo, J. Jaramillo, R. Gomperts, R. E. Stratmann, 
 O. Yazyev, A. J. Austin, R. Cammi, C. Pomelli, J. W. Ochterski, 
 R. L. Martin, K. Morokuma, V. G. Zakrzewski, G. A. Voth, 
 P. Salvador, J. J. Dannenberg, S. Dapprich, A. D. Daniels, 
 O. Farkas, J. B. Foresman, J. V. Ortiz, J. Cioslowski, 
 and D. J. Fox, Gaussian, Inc., Wallingford CT, 2013.
 
 ******************************************
 Gaussian 09:  AS64L-G09RevD.01 24-Apr-2013
                19-Jan-2019 
 ******************************************
 %Chk=BLIND01095_mB
 %Mem=1GB
 %NProcShared=48
 Will use up to   48 processors via shared memory.
 ---------------------------------------------
 #T M05/Gen test Massage SCF=(fermi,maxcyc=60)
 ---------------------------------------------
 -------
 M05 opt
 -------
 Symbolic Z-matrix:
 Charge =  0 Multiplicity = 1
 6                    -0.64785  -0.66569   8.01074 
 6                    -0.33691   0.44094   7.17139 
 16                    0.43368  -1.36426   9.2069 
 16                    1.19728   1.32325   7.22017 
 6                     1.32154   0.08169   9.72172 
 6                     1.62395   1.14523   8.93109 
 6                    -1.90013  -1.15168   7.69307 
 7                    -1.23678   0.79958   6.28852 
 16                   -2.55002  -0.2188    6.38456 
 6                     1.75205   0.0202    11.07891 
 7                     2.10181  -0.08624   12.18233 
 6                     2.38649   2.241     9.43287 
 7                     3.02932   3.14088   9.7905 
 6                    -2.59115  -2.24493   8.26966 
 7                    -3.16895  -3.14492   8.72494 
 
                    Distance matrix (angstroms):
                    1          2          3          4          5
     1  C    0.000000
     2  C    1.423315   0.000000
     3  S    1.757418   2.827694   0.000000
     4  S    2.825849   1.770477   3.428253   0.000000
     5  C    2.713774   3.063280   1.773167   2.795470   0.000000
     6  C    3.047557   2.727187   2.791121   1.772288   1.359281
     7  C    1.380327   2.291783   2.789903   3.992857   4.001979
     8  N    2.336642   1.310672   3.998700   2.658358   4.341342
     9  S    2.542129   2.439721   4.263822   4.137445   5.120151
    10  C    3.955208   4.450782   2.675676   4.110426   1.425163
    11  N    5.029770   5.597745   3.642685   5.237162   2.586817
    12  C    4.436049   3.971317   4.106384   2.674416   2.424897
    13  N    5.583831   5.047859   5.232040   3.642352   3.504263
    14  C    2.517432   3.674472   3.286888   5.309014   4.778168
    15  N    3.607292   4.826214   4.047461   6.425950   5.618639
                    6          7          8          9         10
     6  C    0.000000
     7  C    4.384939   0.000000
     8  N    3.909794   2.494036   0.000000
     9  S    5.076167   1.733444   1.664607   0.000000
    10  C    2.428007   5.116215   5.699860   6.371958   0.000000
    11  N    3.509330   6.107712   6.831389   7.434461   1.162408
    12  C    1.426163   5.736923   5.009263   6.301738   2.836178
    13  N    2.587713   6.864751   5.995430   7.349618   3.609722
    14  C    5.449573   1.416040   3.876636   2.767765   5.646781
    15  N    6.435818   2.578302   5.022796   3.797715   6.306769
                   11         12         13         14         15
    11  N    0.000000
    12  C    3.613393   0.000000
    13  N    4.122555   1.162293   0.000000
    14  C    6.480188   6.800997   7.931563   0.000000
    15  N    7.006418   7.769948   8.891861   1.162367   0.000000
 Symmetry turned off by external request.
 Framework group  C1[X(C8N4S3)]
 Deg. of freedom    39
 Rotational constants (GHZ):      0.7722167      0.3388923      0.2463240
   357 basis functions,   759 primitive gaussians,   387 cartesian basis functions
    62 alpha electrons       62 beta electrons
       nuclear repulsion energy      1166.1400402588 Hartrees.
 IMHF & INEx in M05                  599485                  400514
 NAtoms=   15 NActive=   15 NUniq=   15 SFac= 1.00D+00 NAtFMM=   60 NAOKFM=F Big=F
 PrsmSu:  requested number of processors reduced to:  34 ShMem   1 Linda.
 ExpMin= 3.99D-02 ExpMax= 1.11D+05 ExpMxC= 1.07D+03 IAcc=3 IRadAn=         5 AccDes= 0.00D+00
 Harris functional with IExCor= 1009 and IRadAn=       5 diagonalized for initial guess.
 HarFok:  IExCor= 1009 AccDes= 0.00D+00 IRadAn=         5 IDoV= 1 UseB2=F ITyADJ=14
 ICtDFT=  3500011 ScaDFX=  1.000000  1.000000  1.000000  1.000000
 FoFCou: FMM=F IPFlag=           0 FMFlag=      100000 FMFlg1=           0
         NFxFlg=           0 DoJE=T BraDBF=F KetDBF=T FulRan=T
         wScrn=  0.000000 ICntrl=     500 IOpCl=  0 I1Cent=   200000004 NGrid=           0
         NMat0=    1 NMatS0=      1 NMatT0=    0 NMatD0=    1 NMtDS0=    0 NMtDT0=    0
 Symmetry not used in FoFCou.
 SCF Done:  E(RM05) =  -1724.76147878     A.U. after   17 cycles
            NFock= 17  Conv=0.51D-08     -V/T= 2.0061

 **********************************************************************

            Population analysis using the SCF density.

 **********************************************************************

 Alpha  occ. eigenvalues --  -90.56430 -90.53636 -90.53180 -15.08622 -15.05416
 Alpha  occ. eigenvalues --  -15.04969 -15.04934 -10.89945 -10.89826 -10.89736
 Alpha  occ. eigenvalues --  -10.88752 -10.87414 -10.84946 -10.84332 -10.84310
 Alpha  occ. eigenvalues --   -8.57525  -8.55036  -8.54608  -6.40063  -6.39712
 Alpha  occ. eigenvalues --   -6.39400  -6.37597  -6.37283  -6.37161  -6.36851
 Alpha  occ. eigenvalues --   -6.36822  -6.36391  -1.20533  -1.12895  -1.12139
 Alpha  occ. eigenvalues --   -1.11337  -1.07643  -1.03801  -0.98824  -0.97396
 Alpha  occ. eigenvalues --   -0.88002  -0.84555  -0.82236  -0.73686  -0.71296
 Alpha  occ. eigenvalues --   -0.67838  -0.64612  -0.59530  -0.57258  -0.55386
 Alpha  occ. eigenvalues --   -0.53385  -0.52647  -0.52243  -0.51890  -0.50883
 Alpha  occ. eigenvalues --   -0.50387  -0.49356  -0.48215  -0.46805  -0.46074
 Alpha  occ. eigenvalues --   -0.45933  -0.45296  -0.43720  -0.43113  -0.39488
 Alpha  occ. eigenvalues --   -0.37627  -0.33119
 Alpha virt. eigenvalues --   -0.09329  -0.08268  -0.02097  -0.01261  -0.00501
 Alpha virt. eigenvalues --   -0.00360   0.00153   0.01255   0.02022   0.02232
 Alpha virt. eigenvalues --    0.02396   0.02958   0.03191   0.04003   0.04277
 Alpha virt. eigenvalues --    0.04488   0.05428   0.06009   0.06296   0.07068
 Alpha virt. eigenvalues --    0.07272   0.07526   0.07707   0.08288   0.08490
 Alpha virt. eigenvalues --    0.09379   0.10093   0.10397   0.10526   0.10812
 Alpha virt. eigenvalues --    0.11286   0.11393   0.11979   0.12527   0.13230
 Alpha virt. eigenvalues --    0.13494   0.13936   0.14455   0.15075   0.15190
 Alpha virt. eigenvalues --    0.15904   0.16277   0.16676   0.16815   0.17189
 Alpha virt. eigenvalues --    0.17359   0.17841   0.18611   0.19055   0.19558
 Alpha virt. eigenvalues --    0.19864   0.20242   0.20688   0.20954   0.21265
 Alpha virt. eigenvalues --    0.21887   0.22208   0.22582   0.22829   0.23616
 Alpha virt. eigenvalues --    0.23748   0.24121   0.24372   0.24701   0.25260
 Alpha virt. eigenvalues --    0.25699   0.25851   0.26229   0.26623   0.26747
 Alpha virt. eigenvalues --    0.27071   0.28334   0.29197   0.29666   0.30366
 Alpha virt. eigenvalues --    0.30712   0.32421   0.33459   0.34154   0.34714
 Alpha virt. eigenvalues --    0.34951   0.35469   0.36121   0.36936   0.37594
 Alpha virt. eigenvalues --    0.38154   0.39576   0.40728   0.41171   0.42050
 Alpha virt. eigenvalues --    0.42119   0.43484   0.44133   0.45738   0.45983
 Alpha virt. eigenvalues --    0.46959   0.48556   0.49570   0.50238   0.50593
 Alpha virt. eigenvalues --    0.51523   0.51855   0.53529   0.54168   0.54425
 Alpha virt. eigenvalues --    0.54700   0.55466   0.55730   0.55838   0.56450
 Alpha virt. eigenvalues --    0.57773   0.58140   0.58557   0.59219   0.60313
 Alpha virt. eigenvalues --    0.60552   0.61100   0.61585   0.62103   0.62708
 Alpha virt. eigenvalues --    0.63710   0.64718   0.64955   0.66005   0.66559
 Alpha virt. eigenvalues --    0.67688   0.68190   0.68806   0.70107   0.70417
 Alpha virt. eigenvalues --    0.71047   0.72863   0.73469   0.73855   0.75374
 Alpha virt. eigenvalues --    0.75570   0.76458   0.77062   0.77553   0.77843
 Alpha virt. eigenvalues --    0.78247   0.79255   0.79760   0.79879   0.81109
 Alpha virt. eigenvalues --    0.81534   0.82544   0.83278   0.83956   0.84870
 Alpha virt. eigenvalues --    0.85699   0.85938   0.87122   0.87251   0.88403
 Alpha virt. eigenvalues --    0.88460   0.89346   0.89668   0.89830   0.90730
 Alpha virt. eigenvalues --    0.91171   0.91725   0.92830   0.93721   0.94367
 Alpha virt. eigenvalues --    0.95431   0.95566   0.97325   0.98742   0.99313
 Alpha virt. eigenvalues --    0.99848   1.01203   1.02845   1.03578   1.04751
 Alpha virt. eigenvalues --    1.05757   1.06748   1.08036   1.08540   1.09635
 Alpha virt. eigenvalues --    1.10233   1.11401   1.13196   1.13608   1.14402
 Alpha virt. eigenvalues --    1.15318   1.17098   1.18342   1.20283   1.20631
 Alpha virt. eigenvalues --    1.21607   1.22700   1.23935   1.24222   1.26562
 Alpha virt. eigenvalues --    1.27343   1.29759   1.30254   1.32274   1.34126
 Alpha virt. eigenvalues --    1.37310   1.40080   1.40256   1.41567   1.42732
 Alpha virt. eigenvalues --    1.43618   1.45024   1.46460   1.47272   1.49372
 Alpha virt. eigenvalues --    1.49825   1.50474   1.51641   1.51868   1.52334
 Alpha virt. eigenvalues --    1.53715   1.54192   1.55430   1.56135   1.56449
 Alpha virt. eigenvalues --    1.56791   1.58490   1.59726   1.60390   1.60516
 Alpha virt. eigenvalues --    1.62129   1.63280   1.64924   1.66027   1.67546
 Alpha virt. eigenvalues --    1.68609   1.69175   1.70471   1.71328   1.74152
 Alpha virt. eigenvalues --    1.76827   1.77080   1.79015   1.79377   1.81039
 Alpha virt. eigenvalues --    1.82957   1.85917   1.88149   1.89702   1.90607
 Alpha virt. eigenvalues --    1.91369   1.94485   1.95004   1.97394   2.00539
 Alpha virt. eigenvalues --    2.00824   2.05448   2.07036   2.08348   2.08472
 Alpha virt. eigenvalues --    2.10897   2.13937   2.18606   2.20233   2.24593
 Alpha virt. eigenvalues --    2.27645   2.30685   2.37026   2.37401   2.38001
 Alpha virt. eigenvalues --    2.38279   2.39369   2.39930   2.40470   2.42149
 Alpha virt. eigenvalues --    2.42559   2.43756   2.45057   2.51017   2.54995
 Alpha virt. eigenvalues --    2.61156   2.64126   2.68329   2.71897   2.73264
 Alpha virt. eigenvalues --    2.76310   2.78780   2.81840   2.94679   2.99730
 Alpha virt. eigenvalues --    3.01877   3.09942   3.11451   3.15940   3.17850
 Alpha virt. eigenvalues --    3.24292   3.27126   3.35292   3.59306   3.74888
          Condensed to atoms (all electrons):
 Mulliken charges:
               1
     1  C    0.619970
     2  C   -0.108704
     3  S    0.374627
     4  S    0.296890
     5  C    1.039763
     6  C    1.131817
     7  C    0.786419
     8  N   -1.083455
     9  S    0.557142
    10  C   -1.130552
    11  N   -0.167810
    12  C   -1.099877
    13  N   -0.180357
    14  C   -0.852928
    15  N   -0.182944
 Sum of Mulliken charges =  -0.00000
 Mulliken charges with hydrogens summed into heavy atoms:
               1
     1  C    0.619970
     2  C   -0.108704
     3  S    0.374627
     4  S    0.296890
     5  C    1.039763
     6  C    1.131817
     7  C    0.786419
     8  N   -1.083455
     9  S    0.557142
    10  C   -1.130552
    11  N   -0.167810
    12  C   -1.099877
    13  N   -0.180357
    14  C   -0.852928
    15  N   -0.182944
 Electronic spatial extent (au):  <R**2>=          35561.9354
 Charge=             -0.0000 electrons
 Dipole moment (field-independent basis, Debye):
    X=             -1.7011    Y=             -0.6583    Z=             -4.3153  Tot=              4.6850

 Test job not archived.
 1\1\GINC-CHIMERA-NODE14\SP\RM05\Gen\C8N4S3\CONNORNM\19-Jan-2019\0\\#T 
 M05/Gen test Massage SCF=(fermi,maxcyc=60)\\M05 opt\\0,1\C,0,-0.647852
 49,-0.66569436,8.01073754\C,0,-0.33690746,0.4409401,7.17139254\S,0,0.4
 3367862,-1.36425887,9.20690421\S,0,1.19728121,1.32325198,7.22016959\C,
 0,1.32154479,0.08169489,9.72171823\C,0,1.6239537,1.14522957,8.93109387
 \C,0,-1.90013415,-1.15168054,7.69307217\N,0,-1.23677955,0.79957518,6.2
 8851592\S,0,-2.55002498,-0.21879511,6.38456415\C,0,1.75204733,0.020201
 87,11.07891233\N,0,2.10180751,-0.08623773,12.1823304\C,0,2.38648917,2.
 24099628,9.43286764\N,0,3.0293171,3.14088473,9.79049756\C,0,-2.5911549
 5,-2.24493392,8.26966193\N,0,-3.1689466,-3.14491784,8.7249439\\Version
 =AS64L-G09RevD.01\HF=-1724.7614788\RMSD=5.112e-09\Dipole=-0.6692476,-0
 .2589989,-1.6977713\Quadrupole=20.4180203,15.4414159,-35.8594362,-10.7
 819439,-14.7038181,-3.9431419\PG=C01 [X(C8N4S3)]\\@


 WE ARE PERHAPS NOT FAR REMOVED FROM THE TIME WHEN WE SHALL BE ABLE TO SUBMIT
 THE BULK OF CHEMICAL PHENOMENA TO CALCULATION.

            -- JOSEPH LOUIS GAY-LUSSAC
               MEMOIRES DE LA SOCIETE D'ARCUEIL, 2, 207 (1808)
 Job cpu time:       0 days  1 hours 37 minutes 33.0 seconds.
 File lengths (MBytes):  RWF=     58 Int=      0 D2E=      0 Chk=      6 Scr=      1
 Normal termination of Gaussian 09 at Sat Jan 19 11:02:06 2019.
