 Entering Gaussian System, Link 0=/data/szalewicgrp/connornm/opt/Gaussian/g09-M05-par/g09/g09
 AtFile(1): blind-aug.gbs
 Initial command:
 /data/szalewicgrp/connornm/opt/Gaussian/g09-M05-par/g09/l1.exe "/scratch/local/Gau-11492.inp" -scrdir="/scratch/local/"
 Entering Link 1 = /data/szalewicgrp/connornm/opt/Gaussian/g09-M05-par/g09/l1.exe PID=     11493.
  
 Copyright (c) 1988,1990,1992,1993,1995,1998,2003,2009,2013,
            Gaussian, Inc.  All Rights Reserved.
  
 This is part of the Gaussian(R) 09 program.  It is based on
 the Gaussian(R) 03 system (copyright 2003, Gaussian, Inc.),
 the Gaussian(R) 98 system (copyright 1998, Gaussian, Inc.),
 the Gaussian(R) 94 system (copyright 1995, Gaussian, Inc.),
 the Gaussian 92(TM) system (copyright 1992, Gaussian, Inc.),
 the Gaussian 90(TM) system (copyright 1990, Gaussian, Inc.),
 the Gaussian 88(TM) system (copyright 1988, Gaussian, Inc.),
 the Gaussian 86(TM) system (copyright 1986, Carnegie Mellon
 University), and the Gaussian 82(TM) system (copyright 1983,
 Carnegie Mellon University). Gaussian is a federally registered
 trademark of Gaussian, Inc.
  
 This software contains proprietary and confidential information,
 including trade secrets, belonging to Gaussian, Inc.
  
 This software is provided under written license and may be
 used, copied, transmitted, or stored only in accord with that
 written license.
  
 The following legend is applicable only to US Government
 contracts under FAR:
  
                    RESTRICTED RIGHTS LEGEND
  
 Use, reproduction and disclosure by the US Government is
 subject to restrictions as set forth in subparagraphs (a)
 and (c) of the Commercial Computer Software - Restricted
 Rights clause in FAR 52.227-19.
  
 Gaussian, Inc.
 340 Quinnipiac St., Bldg. 40, Wallingford CT 06492
  
  
 ---------------------------------------------------------------
 Warning -- This program may not be used in any manner that
 competes with the business of Gaussian, Inc. or will provide
 assistance to any competitor of Gaussian, Inc.  The licensee
 of this program is prohibited from giving any competitor of
 Gaussian, Inc. access to this program.  By using this program,
 the user acknowledges that Gaussian, Inc. is engaged in the
 business of creating and licensing software in the field of
 computational chemistry and represents and warrants to the
 licensee that it is not a competitor of Gaussian, Inc. and that
 it will not use this program in any manner prohibited above.
 ---------------------------------------------------------------
  

 Cite this work as:
 Gaussian 09, Revision D.01,
 M. J. Frisch, G. W. Trucks, H. B. Schlegel, G. E. Scuseria, 
 M. A. Robb, J. R. Cheeseman, G. Scalmani, V. Barone, B. Mennucci, 
 G. A. Petersson, H. Nakatsuji, M. Caricato, X. Li, H. P. Hratchian, 
 A. F. Izmaylov, J. Bloino, G. Zheng, J. L. Sonnenberg, M. Hada, 
 M. Ehara, K. Toyota, R. Fukuda, J. Hasegawa, M. Ishida, T. Nakajima, 
 Y. Honda, O. Kitao, H. Nakai, T. Vreven, J. A. Montgomery, Jr., 
 J. E. Peralta, F. Ogliaro, M. Bearpark, J. J. Heyd, E. Brothers, 
 K. N. Kudin, V. N. Staroverov, T. Keith, R. Kobayashi, J. Normand, 
 K. Raghavachari, A. Rendell, J. C. Burant, S. S. Iyengar, J. Tomasi, 
 M. Cossi, N. Rega, J. M. Millam, M. Klene, J. E. Knox, J. B. Cross, 
 V. Bakken, C. Adamo, J. Jaramillo, R. Gomperts, R. E. Stratmann, 
 O. Yazyev, A. J. Austin, R. Cammi, C. Pomelli, J. W. Ochterski, 
 R. L. Martin, K. Morokuma, V. G. Zakrzewski, G. A. Voth, 
 P. Salvador, J. J. Dannenberg, S. Dapprich, A. D. Daniels, 
 O. Farkas, J. B. Foresman, J. V. Ortiz, J. Cioslowski, 
 and D. J. Fox, Gaussian, Inc., Wallingford CT, 2013.
 
 ******************************************
 Gaussian 09:  AS64L-G09RevD.01 24-Apr-2013
                19-Jan-2019 
 ******************************************
 %Chk=BLIND01681
 %Mem=1GB
 %NProcShared=48
 Will use up to   48 processors via shared memory.
 ---------------------------------------------
 #T M05/Gen test Massage SCF=(fermi,maxcyc=60)
 ---------------------------------------------
 -------
 M05 opt
 -------
 Symbolic Z-matrix:
 Charge =  0 Multiplicity = 1
 6                    -0.35127   0.84865   0.44442 
 6                    -0.64994   0.76458  -0.94467 
 16                   -0.18669  -0.5241    1.52931 
 16                   -0.87508  -0.75723  -1.82102 
 6                     0.4828   -1.73364   0.41895 
 6                     0.20682  -1.82428  -0.90893 
 6                    -0.28126   2.17371   0.82471 
 7                    -0.79795   1.8907   -1.59875 
 16                   -0.61443   3.17231  -0.55247 
 6                     1.33716  -2.67384   1.06485 
 7                     2.00668  -3.4303    1.63991 
 6                     0.76345  -2.8678   -1.70592 
 7                     1.17069  -3.71721  -2.38678 
 6                    -0.02021   2.70674   2.11036 
 7                     0.18329   3.16158   3.1605 
 6                    -0.64531  -0.66381   5.5652 
 6                    -1.28488   0.30556   6.38806 
 16                    0.83646  -0.40179   4.65733 
 16                   -0.66552   1.94202   6.65822 
 6                     1.67729   0.72974   5.73286 
 6                     1.07887   1.65896   6.52412 
 6                    -1.40327  -1.81692   5.53172 
 7                    -2.41952  -0.03424   6.9493 
 16                   -2.82891  -1.5807    6.4891 
 6                     3.09626   0.61443   5.6672 
 7                     4.24813   0.49931   5.5616 
 6                     1.85231   2.55566   7.3189 
 7                     2.44257   3.32496   7.95975 
 6                    -1.14424  -3.01918   4.82983 
 7                    -0.95228  -4.00998   4.25315 
 
                    Distance matrix (angstroms):
                    1          2          3          4          5
     1  C    0.000000
     2  C    1.423315   0.000000
     3  S    1.757418   2.827694   0.000000
     4  S    2.825849   1.770477   3.428253   0.000000
     5  C    2.713774   3.063280   1.773167   2.795470   0.000000
     6  C    3.047557   2.727187   2.791121   1.772288   1.359281
     7  C    1.380327   2.291783   2.789903   3.992857   4.001979
     8  N    2.336642   1.310672   3.998700   2.658358   4.341342
     9  S    2.542129   2.439721   4.263822   4.137445   5.120151
    10  C    3.955208   4.450782   2.675676   4.110426   1.425163
    11  N    5.029770   5.597745   3.642685   5.237162   2.586817
    12  C    4.436049   3.971317   4.106384   2.674416   2.424897
    13  N    5.583831   5.047859   5.232040   3.642352   3.504263
    14  C    2.517432   3.674472   3.286888   5.309014   4.778168
    15  N    3.607292   4.826214   4.047461   6.425950   5.618639
    16  C    5.347560   6.664734   4.064266   7.390382   5.375972
    17  C    6.040985   7.374468   5.049934   8.287731   6.550830
    18  S    4.552251   5.912042   3.293379   6.710048   4.456773
    19  S    6.317083   7.693535   5.711105   8.900974   7.331959
    20  C    5.665408   7.071535   4.766172   8.110903   5.977688
    21  C    6.297991   7.718256   5.596028   8.904898   7.009864
    22  C    5.838895   7.012512   4.378447   7.447468   5.450200
    23  N    6.882636   8.129223   5.882328   8.934571   7.345537
    24  S    6.969844   8.093778   5.718157   8.576349   6.916474
    25  C    6.262413   7.600881   5.403349   8.586407   6.315678
    26  N    6.889274   8.148190   6.080656   9.073542   6.753568
    27  C    7.418097   8.817923   6.867444  10.097126   8.239115
    28  N    8.391540   9.767696   7.942221  11.105609   9.289452
    29  C    5.900911   6.921416   4.246854   7.030126   4.873985
    30  N    6.202735   7.064355   4.489630   6.890707   4.684253
                    6          7          8          9         10
     6  C    0.000000
     7  C    4.384939   0.000000
     8  N    3.909794   2.494036   0.000000
     9  S    5.076167   1.733444   1.664607   0.000000
    10  C    2.428007   5.116215   5.699860   6.371958   0.000000
    11  N    3.509330   6.107712   6.831389   7.434461   1.162408
    12  C    1.426163   5.736923   5.009263   6.301738   2.836178
    13  N    2.587713   6.864751   5.995430   7.349618   3.609722
    14  C    5.449573   1.416040   3.876636   2.767765   5.646781
    15  N    6.435818   2.578302   5.022796   3.797715   6.306769
    16  C    6.632286   5.536809   7.607293   7.220982   5.312588
    17  C    7.746454   5.953831   8.157137   7.539145   6.639921
    18  S    5.779554   4.750947   6.860419   6.482384   4.280053
    19  S    8.497516   5.850739   8.258187   7.315068   7.523473
    20  C    7.266274   5.478219   7.824775   7.122040   5.787087
    21  C    8.254921   5.882020   8.340090   7.432061   6.974489
    22  C    6.638864   6.272163   8.059558   7.907724   5.310112
    23  N    8.476658   6.852578   8.910894   8.355649   7.463706
    24  S    8.000373   7.257514   9.032650   8.779453   6.926306
    25  C    7.585624   6.106447   8.341926   7.680901   5.923577
    26  N    7.974901   6.764398   8.869580   8.256586   6.226023
    27  C    9.465133   6.846348   9.326868   8.271847   8.168608
    28  N   10.496040   7.723564  10.194263   9.045796   9.205824
    29  C    6.015525   6.614513   8.096505   8.220970   4.522358
    30  N    5.724320   7.102283   8.311826   8.648314   4.146333
                   11         12         13         14         15
    11  N    0.000000
    12  C    3.613393   0.000000
    13  N    4.122555   1.162293   0.000000
    14  C    6.480188   6.800997   7.931563   0.000000
    15  N    7.006418   7.769948   8.891861   1.162367   0.000000
    16  C    5.485842   7.727310   8.709486   4.866949   4.593774
    17  C    6.880117   8.931874   9.960443   5.065939   4.552970
    18  S    4.432396   6.824770   7.792515   4.109001   3.919792
    19  S    7.822141   9.753720  10.826384   4.656629   3.800240
    20  C    5.845227   8.313411   9.271496   4.462342   3.842251
    21  C    7.114556   9.398113  10.407489   4.667658   3.791282
    22  C    5.420058   7.627745   8.540441   5.837984   5.738066
    23  N    7.701565   9.647442  10.659094   6.056812   5.598476
    24  S    7.093569   9.039916   9.967089   6.741240   6.530104
    25  C    5.810857   8.481201   9.345457   5.171193   4.610522
    26  N    5.987114   8.734828   9.509284   5.916289   5.419949
    27  C    8.252663  10.585217  11.576432   5.536966   4.521615
    28  N    9.260881  11.601503  12.580169   6.376742   5.306958
    29  C    4.502549   6.810155   7.610890   6.437781   6.538410
    30  N    3.990051   6.305456   6.977204   7.111576   7.342661
                   16         17         18         19         20
    16  C    0.000000
    17  C    1.423315   0.000000
    18  S    1.757418   2.827694   0.000000
    19  S    2.825849   1.770477   3.428253   0.000000
    20  C    2.713774   3.063280   1.773167   2.795470   0.000000
    21  C    3.047557   2.727187   2.791121   1.772288   1.359281
    22  C    1.380327   2.291783   2.789903   3.992857   4.001979
    23  N    2.336642   1.310672   3.998700   2.658358   4.341342
    24  S    2.542129   2.439721   4.263822   4.137445   5.120151
    25  C    3.955208   4.450782   2.675676   4.110426   1.425163
    26  N    5.029770   5.597745   3.642685   5.237162   2.586817
    27  C    4.436049   3.971317   4.106384   2.674416   2.424897
    28  N    5.583831   5.047859   5.232040   3.642352   3.504263
    29  C    2.517432   3.674472   3.286888   5.309014   4.778168
    30  N    3.607292   4.826214   4.047461   6.425950   5.618639
                   21         22         23         24         25
    21  C    0.000000
    22  C    4.384939   0.000000
    23  N    3.909794   2.494036   0.000000
    24  S    5.076167   1.733444   1.664607   0.000000
    25  C    2.428007   5.116215   5.699860   6.371958   0.000000
    26  N    3.509330   6.107712   6.831389   7.434461   1.162408
    27  C    1.426163   5.736923   5.009263   6.301738   2.836178
    28  N    2.587713   6.864751   5.995430   7.349618   3.609722
    29  C    5.449573   1.416040   3.876636   2.767765   5.646781
    30  N    6.435818   2.578302   5.022796   3.797715   6.306769
                   26         27         28         29         30
    26  N    0.000000
    27  C    3.613393   0.000000
    28  N    4.122555   1.162293   0.000000
    29  C    6.480188   6.800997   7.931563   0.000000
    30  N    7.006418   7.769948   8.891861   1.162367   0.000000
 Symmetry turned off by external request.
 Framework group  C1[X(C16N8S6)]
 Deg. of freedom    84
 Rotational constants (GHZ):      0.1558865      0.0773233      0.0671638
   714 basis functions,  1518 primitive gaussians,   774 cartesian basis functions
   124 alpha electrons      124 beta electrons
       nuclear repulsion energy      3570.8765678977 Hartrees.
 IMHF & INEx in M05                  599485                  400514
 NAtoms=   30 NActive=   30 NUniq=   30 SFac= 1.00D+00 NAtFMM=   60 NAOKFM=F Big=F
 PrsmSu:  requested number of processors reduced to:  25 ShMem   1 Linda.
 ExpMin= 3.99D-02 ExpMax= 1.11D+05 ExpMxC= 1.07D+03 IAcc=3 IRadAn=         5 AccDes= 0.00D+00
 Harris functional with IExCor= 1009 and IRadAn=       5 diagonalized for initial guess.
 HarFok:  IExCor= 1009 AccDes= 0.00D+00 IRadAn=         5 IDoV= 1 UseB2=F ITyADJ=14
 ICtDFT=  3500011 ScaDFX=  1.000000  1.000000  1.000000  1.000000
 FoFCou: FMM=F IPFlag=           0 FMFlag=      100000 FMFlg1=           0
         NFxFlg=           0 DoJE=T BraDBF=F KetDBF=T FulRan=T
         wScrn=  0.000000 ICntrl=     500 IOpCl=  0 I1Cent=   200000004 NGrid=           0
         NMat0=    1 NMatS0=      1 NMatT0=    0 NMatD0=    1 NMtDS0=    0 NMtDT0=    0
 Symmetry not used in FoFCou.
 Restarting incremental Fock formation.
 SCF Done:  E(RM05) =  -3448.35245209     A.U. after   22 cycles
            NFock= 22  Conv=0.17D-08     -V/T= 2.0058

 **********************************************************************

            Population analysis using the SCF density.

 **********************************************************************

 Alpha  occ. eigenvalues --  -90.55345 -90.54567 -90.52425 -90.51892 -90.51527
 Alpha  occ. eigenvalues --  -90.51009 -15.08440 -15.07651 -15.05569 -15.04605
 Alpha  occ. eigenvalues --  -15.04432 -15.04323 -15.03720 -15.03718 -10.89597
 Alpha  occ. eigenvalues --  -10.89556 -10.89477 -10.88794 -10.88781 -10.88689
 Alpha  occ. eigenvalues --  -10.88636 -10.87909 -10.87403 -10.86577 -10.85310
 Alpha  occ. eigenvalues --  -10.84213 -10.83838 -10.83687 -10.83205 -10.83181
 Alpha  occ. eigenvalues --   -8.57945  -8.57175  -8.55398  -8.54826  -8.54475
 Alpha  occ. eigenvalues --   -8.53931  -6.40667  -6.40317  -6.40007  -6.39897
 Alpha  occ. eigenvalues --   -6.39548  -6.39236  -6.38137  -6.37828  -6.37563
 Alpha  occ. eigenvalues --   -6.37369  -6.37255  -6.37215  -6.36904  -6.36794
 Alpha  occ. eigenvalues --   -6.36670  -6.36443  -6.36362  -6.35897  -1.21158
 Alpha  occ. eigenvalues --   -1.20393  -1.13168  -1.13140  -1.12459  -1.12136
 Alpha  occ. eigenvalues --   -1.11514  -1.10903  -1.08060  -1.07279  -1.04462
 Alpha  occ. eigenvalues --   -1.03628  -0.99339  -0.98555  -0.98004  -0.97126
 Alpha  occ. eigenvalues --   -0.88606  -0.87769  -0.85115  -0.84300  -0.82900
 Alpha  occ. eigenvalues --   -0.82073  -0.74125  -0.73312  -0.71901  -0.71091
 Alpha  occ. eigenvalues --   -0.68498  -0.67679  -0.65264  -0.64443  -0.60216
 Alpha  occ. eigenvalues --   -0.59494  -0.57789  -0.57016  -0.55931  -0.55301
 Alpha  occ. eigenvalues --   -0.54374  -0.53639  -0.53292  -0.52958  -0.52555
 Alpha  occ. eigenvalues --   -0.52082  -0.51870  -0.51522  -0.51363  -0.51165
 Alpha  occ. eigenvalues --   -0.50634  -0.50294  -0.49946  -0.49254  -0.48508
 Alpha  occ. eigenvalues --   -0.47887  -0.47604  -0.46733  -0.46421  -0.46282
 Alpha  occ. eigenvalues --   -0.45869  -0.45695  -0.45651  -0.45099  -0.44214
 Alpha  occ. eigenvalues --   -0.43742  -0.43495  -0.42865  -0.39960  -0.39239
 Alpha  occ. eigenvalues --   -0.38379  -0.37410  -0.33750  -0.32643
 Alpha virt. eigenvalues --   -0.09769  -0.09037  -0.08995  -0.08196  -0.02853
 Alpha virt. eigenvalues --   -0.02004  -0.01812  -0.01339  -0.01277  -0.00909
 Alpha virt. eigenvalues --   -0.00419  -0.00095   0.00151   0.00341   0.00753
 Alpha virt. eigenvalues --    0.01140   0.01810   0.01855   0.02212   0.02261
 Alpha virt. eigenvalues --    0.02566   0.02890   0.03045   0.03330   0.03696
 Alpha virt. eigenvalues --    0.03857   0.04022   0.04318   0.04884   0.05177
 Alpha virt. eigenvalues --    0.05769   0.06007   0.06043   0.06417   0.06601
 Alpha virt. eigenvalues --    0.06842   0.06985   0.07171   0.07360   0.07465
 Alpha virt. eigenvalues --    0.07683   0.07925   0.08144   0.08458   0.08763
 Alpha virt. eigenvalues --    0.09217   0.09329   0.09516   0.09810   0.09940
 Alpha virt. eigenvalues --    0.10521   0.10561   0.10795   0.10862   0.11126
 Alpha virt. eigenvalues --    0.11363   0.11460   0.11736   0.12150   0.12346
 Alpha virt. eigenvalues --    0.12500   0.12665   0.13028   0.13464   0.13694
 Alpha virt. eigenvalues --    0.13802   0.13999   0.14158   0.14349   0.14629
 Alpha virt. eigenvalues --    0.14993   0.15082   0.15170   0.15469   0.15672
 Alpha virt. eigenvalues --    0.15845   0.16193   0.16317   0.16604   0.16785
 Alpha virt. eigenvalues --    0.16997   0.17224   0.17563   0.17697   0.17889
 Alpha virt. eigenvalues --    0.18049   0.18327   0.18580   0.18600   0.19197
 Alpha virt. eigenvalues --    0.19363   0.19405   0.19521   0.19789   0.20057
 Alpha virt. eigenvalues --    0.20175   0.20753   0.21027   0.21066   0.21328
 Alpha virt. eigenvalues --    0.21509   0.21734   0.21927   0.22200   0.22576
 Alpha virt. eigenvalues --    0.22611   0.22818   0.23248   0.23331   0.23436
 Alpha virt. eigenvalues --    0.23612   0.23808   0.24189   0.24385   0.24595
 Alpha virt. eigenvalues --    0.24860   0.25060   0.25194   0.25386   0.25521
 Alpha virt. eigenvalues --    0.25770   0.25910   0.26204   0.26416   0.26511
 Alpha virt. eigenvalues --    0.26859   0.27025   0.27115   0.27407   0.27515
 Alpha virt. eigenvalues --    0.27876   0.28001   0.28232   0.28571   0.28975
 Alpha virt. eigenvalues --    0.29056   0.29964   0.30014   0.30208   0.30406
 Alpha virt. eigenvalues --    0.30577   0.30842   0.30932   0.31564   0.31898
 Alpha virt. eigenvalues --    0.32141   0.32485   0.32803   0.33044   0.33281
 Alpha virt. eigenvalues --    0.33760   0.34090   0.34203   0.34538   0.35016
 Alpha virt. eigenvalues --    0.35361   0.35895   0.35962   0.36109   0.36489
 Alpha virt. eigenvalues --    0.36553   0.36892   0.37182   0.37674   0.38067
 Alpha virt. eigenvalues --    0.38685   0.38836   0.39342   0.39639   0.40377
 Alpha virt. eigenvalues --    0.40898   0.41168   0.41278   0.42131   0.42345
 Alpha virt. eigenvalues --    0.42776   0.43024   0.43290   0.44215   0.44299
 Alpha virt. eigenvalues --    0.44757   0.45046   0.45559   0.45865   0.46112
 Alpha virt. eigenvalues --    0.47059   0.47623   0.48507   0.48636   0.48855
 Alpha virt. eigenvalues --    0.49646   0.49795   0.50129   0.50737   0.51038
 Alpha virt. eigenvalues --    0.51488   0.51752   0.51992   0.52964   0.53418
 Alpha virt. eigenvalues --    0.53553   0.54167   0.54235   0.54600   0.54957
 Alpha virt. eigenvalues --    0.55151   0.55337   0.55774   0.55944   0.56316
 Alpha virt. eigenvalues --    0.56667   0.56793   0.57161   0.57704   0.57942
 Alpha virt. eigenvalues --    0.58095   0.58842   0.58915   0.59240   0.59509
 Alpha virt. eigenvalues --    0.59793   0.60260   0.60537   0.60878   0.61021
 Alpha virt. eigenvalues --    0.61334   0.61594   0.62005   0.62248   0.62554
 Alpha virt. eigenvalues --    0.63054   0.63248   0.63404   0.63805   0.64120
 Alpha virt. eigenvalues --    0.64516   0.64851   0.65214   0.65471   0.65868
 Alpha virt. eigenvalues --    0.66252   0.66517   0.66804   0.66903   0.67454
 Alpha virt. eigenvalues --    0.67815   0.68013   0.68268   0.69108   0.69505
 Alpha virt. eigenvalues --    0.69873   0.69983   0.70178   0.70361   0.71152
 Alpha virt. eigenvalues --    0.71312   0.71903   0.72607   0.73191   0.73497
 Alpha virt. eigenvalues --    0.73914   0.74075   0.74457   0.74590   0.75297
 Alpha virt. eigenvalues --    0.75656   0.76073   0.76184   0.76781   0.77144
 Alpha virt. eigenvalues --    0.77201   0.77747   0.78282   0.78658   0.78745
 Alpha virt. eigenvalues --    0.79357   0.79600   0.79756   0.80224   0.80483
 Alpha virt. eigenvalues --    0.80909   0.81115   0.81375   0.81677   0.82162
 Alpha virt. eigenvalues --    0.82298   0.82644   0.83359   0.83524   0.83968
 Alpha virt. eigenvalues --    0.84123   0.84916   0.84994   0.85138   0.85619
 Alpha virt. eigenvalues --    0.85900   0.86174   0.86498   0.86696   0.86990
 Alpha virt. eigenvalues --    0.87491   0.87556   0.87781   0.88338   0.88581
 Alpha virt. eigenvalues --    0.89318   0.89497   0.89772   0.90088   0.90366
 Alpha virt. eigenvalues --    0.90725   0.91113   0.91333   0.91552   0.91891
 Alpha virt. eigenvalues --    0.92226   0.92520   0.93015   0.93457   0.93781
 Alpha virt. eigenvalues --    0.93941   0.94348   0.94785   0.95173   0.95331
 Alpha virt. eigenvalues --    0.95671   0.96447   0.96571   0.97061   0.97127
 Alpha virt. eigenvalues --    0.98151   0.98857   0.98970   0.99591   0.99998
 Alpha virt. eigenvalues --    1.00175   1.01285   1.01587   1.02098   1.02672
 Alpha virt. eigenvalues --    1.03249   1.03382   1.03919   1.04538   1.05070
 Alpha virt. eigenvalues --    1.05807   1.06566   1.07196   1.07525   1.07835
 Alpha virt. eigenvalues --    1.08239   1.09169   1.09206   1.09334   1.10178
 Alpha virt. eigenvalues --    1.10540   1.11116   1.11638   1.12419   1.12791
 Alpha virt. eigenvalues --    1.13100   1.13715   1.14175   1.14783   1.15447
 Alpha virt. eigenvalues --    1.15697   1.16127   1.16695   1.16968   1.17212
 Alpha virt. eigenvalues --    1.17639   1.18508   1.18935   1.19545   1.20637
 Alpha virt. eigenvalues --    1.21182   1.21786   1.22369   1.22926   1.23401
 Alpha virt. eigenvalues --    1.23676   1.23975   1.24696   1.25448   1.26616
 Alpha virt. eigenvalues --    1.27231   1.27526   1.28279   1.28912   1.29275
 Alpha virt. eigenvalues --    1.30095   1.31065   1.31604   1.31837   1.33036
 Alpha virt. eigenvalues --    1.33659   1.34539   1.35664   1.36513   1.38291
 Alpha virt. eigenvalues --    1.38507   1.40125   1.40940   1.41082   1.41592
 Alpha virt. eigenvalues --    1.42752   1.43138   1.43790   1.44689   1.45321
 Alpha virt. eigenvalues --    1.45875   1.46660   1.47362   1.47913   1.48091
 Alpha virt. eigenvalues --    1.49356   1.49997   1.50312   1.50565   1.50960
 Alpha virt. eigenvalues --    1.52049   1.52331   1.52611   1.52800   1.53058
 Alpha virt. eigenvalues --    1.53625   1.54137   1.54496   1.54580   1.55303
 Alpha virt. eigenvalues --    1.55881   1.56327   1.56915   1.57123   1.57956
 Alpha virt. eigenvalues --    1.58446   1.58967   1.59070   1.59461   1.60046
 Alpha virt. eigenvalues --    1.60900   1.61150   1.61599   1.61689   1.62395
 Alpha virt. eigenvalues --    1.62656   1.62948   1.63931   1.64035   1.64316
 Alpha virt. eigenvalues --    1.64463   1.65138   1.65454   1.66298   1.67197
 Alpha virt. eigenvalues --    1.67366   1.68585   1.69138   1.69454   1.69706
 Alpha virt. eigenvalues --    1.70375   1.71300   1.71493   1.72024   1.73845
 Alpha virt. eigenvalues --    1.74484   1.74561   1.75529   1.76014   1.77323
 Alpha virt. eigenvalues --    1.78573   1.79072   1.79865   1.80134   1.80497
 Alpha virt. eigenvalues --    1.81409   1.81959   1.82666   1.83479   1.84286
 Alpha virt. eigenvalues --    1.84703   1.85045   1.87161   1.88054   1.89874
 Alpha virt. eigenvalues --    1.90732   1.91416   1.91807   1.92552   1.93104
 Alpha virt. eigenvalues --    1.93837   1.94612   1.95092   1.96045   1.97173
 Alpha virt. eigenvalues --    1.97498   1.99183   2.00404   2.01063   2.02012
 Alpha virt. eigenvalues --    2.04248   2.04801   2.07511   2.07808   2.08246
 Alpha virt. eigenvalues --    2.08739   2.09307   2.09565   2.10589   2.11855
 Alpha virt. eigenvalues --    2.12180   2.13132   2.15206   2.16011   2.20528
 Alpha virt. eigenvalues --    2.21227   2.23763   2.23876   2.28294   2.29150
 Alpha virt. eigenvalues --    2.30858   2.32356   2.34722   2.36340   2.38010
 Alpha virt. eigenvalues --    2.38406   2.39017   2.39586   2.39815   2.40392
 Alpha virt. eigenvalues --    2.40785   2.40911   2.41139   2.41706   2.41800
 Alpha virt. eigenvalues --    2.42564   2.42826   2.43186   2.43348   2.44500
 Alpha virt. eigenvalues --    2.44691   2.45149   2.45623   2.46694   2.48890
 Alpha virt. eigenvalues --    2.50937   2.54605   2.55614   2.56740   2.57681
 Alpha virt. eigenvalues --    2.65402   2.67798   2.68629   2.68808   2.69938
 Alpha virt. eigenvalues --    2.72098   2.72483   2.73349   2.74159   2.74799
 Alpha virt. eigenvalues --    2.76934   2.77456   2.79304   2.80027   2.83176
 Alpha virt. eigenvalues --    2.83792   2.95558   2.96167   3.00490   3.01071
 Alpha virt. eigenvalues --    3.02482   3.04466   3.11347   3.13196   3.14020
 Alpha virt. eigenvalues --    3.16426   3.18393   3.19258   3.19996   3.20254
 Alpha virt. eigenvalues --    3.25757   3.27341   3.30999   3.31914   3.39396
 Alpha virt. eigenvalues --    3.47358   3.64117   3.69014   3.79681   3.84134
          Condensed to atoms (all electrons):
 Mulliken charges:
               1
     1  C    0.278478
     2  C    0.078752
     3  S    0.764353
     4  S    0.303379
     5  C    0.944530
     6  C    1.286504
     7  C    0.942719
     8  N   -1.130242
     9  S    0.537783
    10  C   -1.255675
    11  N   -0.111506
    12  C   -1.261859
    13  N   -0.122931
    14  C   -1.263042
    15  N   -0.039528
    16  C    0.230639
    17  C   -0.112984
    18  S    0.929710
    19  S    0.317895
    20  C    1.019160
    21  C    1.438556
    22  C    0.941356
    23  N   -1.077730
    24  S    0.535798
    25  C   -1.368225
    26  N   -0.113382
    27  C   -1.408940
    28  N   -0.104194
    29  C   -1.060176
    30  N   -0.119196
 Sum of Mulliken charges =  -0.00000
 Mulliken charges with hydrogens summed into heavy atoms:
               1
     1  C    0.278478
     2  C    0.078752
     3  S    0.764353
     4  S    0.303379
     5  C    0.944530
     6  C    1.286504
     7  C    0.942719
     8  N   -1.130242
     9  S    0.537783
    10  C   -1.255675
    11  N   -0.111506
    12  C   -1.261859
    13  N   -0.122931
    14  C   -1.263042
    15  N   -0.039528
    16  C    0.230639
    17  C   -0.112984
    18  S    0.929710
    19  S    0.317895
    20  C    1.019160
    21  C    1.438556
    22  C    0.941356
    23  N   -1.077730
    24  S    0.535798
    25  C   -1.368225
    26  N   -0.113382
    27  C   -1.408940
    28  N   -0.104194
    29  C   -1.060176
    30  N   -0.119196
 Electronic spatial extent (au):  <R**2>=          23941.8906
 Charge=             -0.0000 electrons
 Dipole moment (field-independent basis, Debye):
    X=             -7.3393    Y=              3.2130    Z=             -2.1290  Tot=              8.2898

 Test job not archived.
 1\1\GINC-CHIMERA-NODE50\SP\RM05\Gen\C16N8S6\CONNORNM\19-Jan-2019\0\\#T
  M05/Gen test Massage SCF=(fermi,maxcyc=60)\\M05 opt\\0,1\C,0,-0.35127
 312,0.84865232,0.44441572\C,0,-0.64994441,0.76458315,-0.94466833\S,0,-
 0.18669437,-0.52409662,1.5293078\S,0,-0.87507548,-0.75722875,-1.821020
 36\C,0,0.48279507,-1.73364371,0.41894669\C,0,0.20681916,-1.82428304,-0
 .90893352\C,0,-0.28125964,2.17370975,0.82471054\N,0,-0.7979516,1.89069
 771,-1.59874775\S,0,-0.61442997,3.17231147,-0.55246726\C,0,1.33716206,
 -2.6738358,1.06484572\N,0,2.00668444,-3.43029861,1.63990817\C,0,0.7634
 4823,-2.86779612,-1.70591938\N,0,1.17068647,-3.7172119,-2.38678352\C,0
 ,-0.02021064,2.7067372,2.11036353\N,0,0.18329343,3.1615848,3.16050431\
 C,0,-0.6453119,-0.66380624,5.56519798\C,0,-1.28488077,0.30556144,6.388
 06165\S,0,0.83645925,-0.4017915,4.65733281\S,0,-0.66551629,1.94201841,
 6.65821823\C,0,1.67729111,0.72974189,5.73285875\C,0,1.07887473,1.65896
 382,6.52411629\C,0,-1.40327429,-1.81692188,5.53172331\N,0,-2.4195181,-
 0.03424475,6.94930127\S,0,-2.82891421,-1.58070202,6.48910387\C,0,3.096
 26292,0.61442818,5.6671976\N,0,4.24812645,0.49930826,5.56160005\C,0,1.
 85231033,2.5556585,7.31889799\N,0,2.44257258,3.32495922,7.95975135\C,0
 ,-1.14424029,-3.0191764,4.82983022\N,0,-0.95227766,-4.00997602,4.25314
 8\\Version=AS64L-G09RevD.01\HF=-3448.3524521\RMSD=1.684e-09\Dipole=-2.
 8874894,1.2640906,-0.8376047\Quadrupole=5.4480146,-4.3056419,-1.142372
 8,2.470818,-24.0019217,-17.452044\PG=C01 [X(C16N8S6)]\\@


 HAPPINESS IS NOT HAVING WHAT YOU WANT --
 HAPPINESS IS WANTING WHAT YOU HAVE!

              -- FROM MRS. SEVERN'S DESK
 Job cpu time:       0 days 14 hours  5 minutes 25.0 seconds.
 File lengths (MBytes):  RWF=    225 Int=      0 D2E=      0 Chk=     19 Scr=      1
 Normal termination of Gaussian 09 at Sat Jan 19 12:31:01 2019.
