 Entering Gaussian System, Link 0=/data/szalewicgrp/connornm/opt/Gaussian/g09-M05-par/g09/g09
 AtFile(1): blind-aug.gbs
 Initial command:
 /data/szalewicgrp/connornm/opt/Gaussian/g09-M05-par/g09/l1.exe "/scratch/local/Gau-30438.inp" -scrdir="/scratch/local/"
 Entering Link 1 = /data/szalewicgrp/connornm/opt/Gaussian/g09-M05-par/g09/l1.exe PID=     30439.
  
 Copyright (c) 1988,1990,1992,1993,1995,1998,2003,2009,2013,
            Gaussian, Inc.  All Rights Reserved.
  
 This is part of the Gaussian(R) 09 program.  It is based on
 the Gaussian(R) 03 system (copyright 2003, Gaussian, Inc.),
 the Gaussian(R) 98 system (copyright 1998, Gaussian, Inc.),
 the Gaussian(R) 94 system (copyright 1995, Gaussian, Inc.),
 the Gaussian 92(TM) system (copyright 1992, Gaussian, Inc.),
 the Gaussian 90(TM) system (copyright 1990, Gaussian, Inc.),
 the Gaussian 88(TM) system (copyright 1988, Gaussian, Inc.),
 the Gaussian 86(TM) system (copyright 1986, Carnegie Mellon
 University), and the Gaussian 82(TM) system (copyright 1983,
 Carnegie Mellon University). Gaussian is a federally registered
 trademark of Gaussian, Inc.
  
 This software contains proprietary and confidential information,
 including trade secrets, belonging to Gaussian, Inc.
  
 This software is provided under written license and may be
 used, copied, transmitted, or stored only in accord with that
 written license.
  
 The following legend is applicable only to US Government
 contracts under FAR:
  
                    RESTRICTED RIGHTS LEGEND
  
 Use, reproduction and disclosure by the US Government is
 subject to restrictions as set forth in subparagraphs (a)
 and (c) of the Commercial Computer Software - Restricted
 Rights clause in FAR 52.227-19.
  
 Gaussian, Inc.
 340 Quinnipiac St., Bldg. 40, Wallingford CT 06492
  
  
 ---------------------------------------------------------------
 Warning -- This program may not be used in any manner that
 competes with the business of Gaussian, Inc. or will provide
 assistance to any competitor of Gaussian, Inc.  The licensee
 of this program is prohibited from giving any competitor of
 Gaussian, Inc. access to this program.  By using this program,
 the user acknowledges that Gaussian, Inc. is engaged in the
 business of creating and licensing software in the field of
 computational chemistry and represents and warrants to the
 licensee that it is not a competitor of Gaussian, Inc. and that
 it will not use this program in any manner prohibited above.
 ---------------------------------------------------------------
  

 Cite this work as:
 Gaussian 09, Revision D.01,
 M. J. Frisch, G. W. Trucks, H. B. Schlegel, G. E. Scuseria, 
 M. A. Robb, J. R. Cheeseman, G. Scalmani, V. Barone, B. Mennucci, 
 G. A. Petersson, H. Nakatsuji, M. Caricato, X. Li, H. P. Hratchian, 
 A. F. Izmaylov, J. Bloino, G. Zheng, J. L. Sonnenberg, M. Hada, 
 M. Ehara, K. Toyota, R. Fukuda, J. Hasegawa, M. Ishida, T. Nakajima, 
 Y. Honda, O. Kitao, H. Nakai, T. Vreven, J. A. Montgomery, Jr., 
 J. E. Peralta, F. Ogliaro, M. Bearpark, J. J. Heyd, E. Brothers, 
 K. N. Kudin, V. N. Staroverov, T. Keith, R. Kobayashi, J. Normand, 
 K. Raghavachari, A. Rendell, J. C. Burant, S. S. Iyengar, J. Tomasi, 
 M. Cossi, N. Rega, J. M. Millam, M. Klene, J. E. Knox, J. B. Cross, 
 V. Bakken, C. Adamo, J. Jaramillo, R. Gomperts, R. E. Stratmann, 
 O. Yazyev, A. J. Austin, R. Cammi, C. Pomelli, J. W. Ochterski, 
 R. L. Martin, K. Morokuma, V. G. Zakrzewski, G. A. Voth, 
 P. Salvador, J. J. Dannenberg, S. Dapprich, A. D. Daniels, 
 O. Farkas, J. B. Foresman, J. V. Ortiz, J. Cioslowski, 
 and D. J. Fox, Gaussian, Inc., Wallingford CT, 2013.
 
 ******************************************
 Gaussian 09:  AS64L-G09RevD.01 24-Apr-2013
                19-Jan-2019 
 ******************************************
 %Chk=BLIND00133_mB
 %Mem=1GB
 %NProcShared=48
 Will use up to   48 processors via shared memory.
 ---------------------------------------------
 #T M05/Gen test Massage SCF=(fermi,maxcyc=60)
 ---------------------------------------------
 -------
 M05 opt
 -------
 Symbolic Z-matrix:
 Charge =  0 Multiplicity = 1
 6                     0.92732  -0.31654   6.33694 
 6                    -0.10542  -0.68027   5.42756 
 16                    0.92921   1.12462   7.3427 
 16                   -1.58809   0.2561    5.18358 
 6                    -0.80712   1.30095   7.65604 
 6                    -1.80294   0.95681   6.79723 
 6                     1.95933  -1.22967   6.25654 
 7                     0.07821  -1.75967   4.70713 
 16                    1.56576  -2.41898   5.05844 
 6                    -1.0899    1.90008   8.91785 
 7                    -1.26976   2.41323   9.94523 
 6                    -3.17116   1.18477   7.12882 
 7                    -4.29666   1.37868   7.34464 
 6                     3.18032  -1.24179   6.97363 
 7                     4.19154  -1.26235   7.54644 
 
                    Distance matrix (angstroms):
                    1          2          3          4          5
     1  C    0.000000
     2  C    1.423315   0.000000
     3  S    1.757418   2.827694   0.000000
     4  S    2.825849   1.770477   3.428253   0.000000
     5  C    2.713774   3.063280   1.773167   2.795470   0.000000
     6  C    3.047557   2.727187   2.791121   1.772288   1.359281
     7  C    1.380327   2.291783   2.789903   3.992857   4.001979
     8  N    2.336642   1.310672   3.998700   2.658358   4.341342
     9  S    2.542129   2.439721   4.263822   4.137445   5.120151
    10  C    3.955208   4.450782   2.675676   4.110426   1.425163
    11  N    5.029770   5.597745   3.642685   5.237162   2.586817
    12  C    4.436049   3.971317   4.106384   2.674416   2.424897
    13  N    5.583831   5.047859   5.232040   3.642352   3.504263
    14  C    2.517432   3.674472   3.286888   5.309014   4.778168
    15  N    3.607292   4.826214   4.047461   6.425950   5.618639
                    6          7          8          9         10
     6  C    0.000000
     7  C    4.384939   0.000000
     8  N    3.909794   2.494036   0.000000
     9  S    5.076167   1.733444   1.664607   0.000000
    10  C    2.428007   5.116215   5.699860   6.371958   0.000000
    11  N    3.509330   6.107712   6.831389   7.434461   1.162408
    12  C    1.426163   5.736923   5.009263   6.301738   2.836178
    13  N    2.587713   6.864751   5.995430   7.349618   3.609722
    14  C    5.449573   1.416040   3.876636   2.767765   5.646781
    15  N    6.435818   2.578302   5.022796   3.797715   6.306769
                   11         12         13         14         15
    11  N    0.000000
    12  C    3.613393   0.000000
    13  N    4.122555   1.162293   0.000000
    14  C    6.480188   6.800997   7.931563   0.000000
    15  N    7.006418   7.769948   8.891861   1.162367   0.000000
 Symmetry turned off by external request.
 Framework group  C1[X(C8N4S3)]
 Deg. of freedom    39
 Rotational constants (GHZ):      0.7722167      0.3388923      0.2463240
   357 basis functions,   759 primitive gaussians,   387 cartesian basis functions
    62 alpha electrons       62 beta electrons
       nuclear repulsion energy      1166.1400400025 Hartrees.
 IMHF & INEx in M05                  599485                  400514
 NAtoms=   15 NActive=   15 NUniq=   15 SFac= 1.00D+00 NAtFMM=   60 NAOKFM=F Big=F
 PrsmSu:  requested number of processors reduced to:  34 ShMem   1 Linda.
 ExpMin= 3.99D-02 ExpMax= 1.11D+05 ExpMxC= 1.07D+03 IAcc=3 IRadAn=         5 AccDes= 0.00D+00
 Harris functional with IExCor= 1009 and IRadAn=       5 diagonalized for initial guess.
 HarFok:  IExCor= 1009 AccDes= 0.00D+00 IRadAn=         5 IDoV= 1 UseB2=F ITyADJ=14
 ICtDFT=  3500011 ScaDFX=  1.000000  1.000000  1.000000  1.000000
 FoFCou: FMM=F IPFlag=           0 FMFlag=      100000 FMFlg1=           0
         NFxFlg=           0 DoJE=T BraDBF=F KetDBF=T FulRan=T
         wScrn=  0.000000 ICntrl=     500 IOpCl=  0 I1Cent=   200000004 NGrid=           0
         NMat0=    1 NMatS0=      1 NMatT0=    0 NMatD0=    1 NMtDS0=    0 NMtDT0=    0
 Symmetry not used in FoFCou.
 SCF Done:  E(RM05) =  -1724.76147138     A.U. after   17 cycles
            NFock= 17  Conv=0.51D-08     -V/T= 2.0061

 **********************************************************************

            Population analysis using the SCF density.

 **********************************************************************

 Alpha  occ. eigenvalues --  -90.56428 -90.53637 -90.53182 -15.08623 -15.05416
 Alpha  occ. eigenvalues --  -15.04969 -15.04934 -10.89945 -10.89826 -10.89736
 Alpha  occ. eigenvalues --  -10.88752 -10.87414 -10.84946 -10.84332 -10.84310
 Alpha  occ. eigenvalues --   -8.57523  -8.55036  -8.54609  -6.40061  -6.39710
 Alpha  occ. eigenvalues --   -6.39399  -6.37598  -6.37283  -6.37163  -6.36853
 Alpha  occ. eigenvalues --   -6.36822  -6.36393  -1.20533  -1.12895  -1.12139
 Alpha  occ. eigenvalues --   -1.11337  -1.07643  -1.03801  -0.98824  -0.97396
 Alpha  occ. eigenvalues --   -0.88002  -0.84555  -0.82236  -0.73687  -0.71296
 Alpha  occ. eigenvalues --   -0.67838  -0.64612  -0.59530  -0.57258  -0.55386
 Alpha  occ. eigenvalues --   -0.53385  -0.52647  -0.52243  -0.51890  -0.50883
 Alpha  occ. eigenvalues --   -0.50387  -0.49356  -0.48215  -0.46805  -0.46074
 Alpha  occ. eigenvalues --   -0.45933  -0.45296  -0.43720  -0.43113  -0.39488
 Alpha  occ. eigenvalues --   -0.37628  -0.33120
 Alpha virt. eigenvalues --   -0.09329  -0.08268  -0.02098  -0.01263  -0.00503
 Alpha virt. eigenvalues --   -0.00362   0.00154   0.01255   0.02020   0.02227
 Alpha virt. eigenvalues --    0.02393   0.02956   0.03186   0.04004   0.04278
 Alpha virt. eigenvalues --    0.04485   0.05428   0.06007   0.06302   0.07068
 Alpha virt. eigenvalues --    0.07270   0.07525   0.07706   0.08291   0.08493
 Alpha virt. eigenvalues --    0.09375   0.10094   0.10392   0.10523   0.10807
 Alpha virt. eigenvalues --    0.11288   0.11391   0.11979   0.12526   0.13227
 Alpha virt. eigenvalues --    0.13486   0.13938   0.14456   0.15075   0.15192
 Alpha virt. eigenvalues --    0.15901   0.16272   0.16677   0.16810   0.17189
 Alpha virt. eigenvalues --    0.17358   0.17846   0.18614   0.19054   0.19565
 Alpha virt. eigenvalues --    0.19857   0.20239   0.20685   0.20946   0.21269
 Alpha virt. eigenvalues --    0.21881   0.22207   0.22585   0.22818   0.23612
 Alpha virt. eigenvalues --    0.23751   0.24109   0.24369   0.24704   0.25259
 Alpha virt. eigenvalues --    0.25691   0.25851   0.26226   0.26623   0.26750
 Alpha virt. eigenvalues --    0.27072   0.28333   0.29192   0.29663   0.30366
 Alpha virt. eigenvalues --    0.30711   0.32417   0.33456   0.34154   0.34716
 Alpha virt. eigenvalues --    0.34951   0.35472   0.36123   0.36936   0.37596
 Alpha virt. eigenvalues --    0.38152   0.39581   0.40727   0.41169   0.42052
 Alpha virt. eigenvalues --    0.42115   0.43485   0.44137   0.45736   0.45981
 Alpha virt. eigenvalues --    0.46964   0.48555   0.49576   0.50235   0.50602
 Alpha virt. eigenvalues --    0.51528   0.51856   0.53528   0.54164   0.54422
 Alpha virt. eigenvalues --    0.54705   0.55467   0.55733   0.55835   0.56449
 Alpha virt. eigenvalues --    0.57770   0.58137   0.58556   0.59214   0.60312
 Alpha virt. eigenvalues --    0.60550   0.61103   0.61587   0.62105   0.62709
 Alpha virt. eigenvalues --    0.63719   0.64716   0.64954   0.66005   0.66557
 Alpha virt. eigenvalues --    0.67685   0.68189   0.68808   0.70108   0.70415
 Alpha virt. eigenvalues --    0.71047   0.72862   0.73469   0.73855   0.75369
 Alpha virt. eigenvalues --    0.75560   0.76455   0.77062   0.77550   0.77842
 Alpha virt. eigenvalues --    0.78245   0.79254   0.79760   0.79880   0.81110
 Alpha virt. eigenvalues --    0.81538   0.82548   0.83277   0.83957   0.84869
 Alpha virt. eigenvalues --    0.85698   0.85942   0.87123   0.87249   0.88404
 Alpha virt. eigenvalues --    0.88457   0.89345   0.89666   0.89829   0.90727
 Alpha virt. eigenvalues --    0.91173   0.91721   0.92829   0.93721   0.94369
 Alpha virt. eigenvalues --    0.95434   0.95564   0.97324   0.98744   0.99314
 Alpha virt. eigenvalues --    0.99846   1.01205   1.02848   1.03575   1.04748
 Alpha virt. eigenvalues --    1.05759   1.06744   1.08038   1.08542   1.09634
 Alpha virt. eigenvalues --    1.10235   1.11404   1.13198   1.13607   1.14403
 Alpha virt. eigenvalues --    1.15324   1.17106   1.18344   1.20285   1.20631
 Alpha virt. eigenvalues --    1.21614   1.22700   1.23937   1.24219   1.26556
 Alpha virt. eigenvalues --    1.27346   1.29756   1.30248   1.32271   1.34126
 Alpha virt. eigenvalues --    1.37312   1.40083   1.40256   1.41566   1.42727
 Alpha virt. eigenvalues --    1.43614   1.45025   1.46461   1.47273   1.49371
 Alpha virt. eigenvalues --    1.49824   1.50474   1.51639   1.51868   1.52333
 Alpha virt. eigenvalues --    1.53717   1.54194   1.55430   1.56138   1.56452
 Alpha virt. eigenvalues --    1.56788   1.58487   1.59726   1.60389   1.60518
 Alpha virt. eigenvalues --    1.62129   1.63279   1.64921   1.66028   1.67545
 Alpha virt. eigenvalues --    1.68612   1.69178   1.70468   1.71321   1.74151
 Alpha virt. eigenvalues --    1.76825   1.77077   1.79017   1.79375   1.81041
 Alpha virt. eigenvalues --    1.82957   1.85919   1.88148   1.89706   1.90608
 Alpha virt. eigenvalues --    1.91370   1.94486   1.95004   1.97392   2.00538
 Alpha virt. eigenvalues --    2.00827   2.05448   2.07036   2.08351   2.08473
 Alpha virt. eigenvalues --    2.10897   2.13936   2.18605   2.20234   2.24594
 Alpha virt. eigenvalues --    2.27645   2.30686   2.37026   2.37402   2.38002
 Alpha virt. eigenvalues --    2.38279   2.39370   2.39930   2.40471   2.42150
 Alpha virt. eigenvalues --    2.42559   2.43755   2.45057   2.51017   2.54995
 Alpha virt. eigenvalues --    2.61156   2.64127   2.68330   2.71900   2.73264
 Alpha virt. eigenvalues --    2.76309   2.78780   2.81840   2.94680   2.99730
 Alpha virt. eigenvalues --    3.01878   3.09940   3.11449   3.15940   3.17850
 Alpha virt. eigenvalues --    3.24293   3.27130   3.35295   3.59306   3.74891
          Condensed to atoms (all electrons):
 Mulliken charges:
               1
     1  C    0.620675
     2  C   -0.108355
     3  S    0.373909
     4  S    0.296467
     5  C    1.039940
     6  C    1.130738
     7  C    0.786511
     8  N   -1.083532
     9  S    0.557393
    10  C   -1.129608
    11  N   -0.168113
    12  C   -1.099747
    13  N   -0.180456
    14  C   -0.852940
    15  N   -0.182881
 Sum of Mulliken charges =  -0.00000
 Mulliken charges with hydrogens summed into heavy atoms:
               1
     1  C    0.620675
     2  C   -0.108355
     3  S    0.373909
     4  S    0.296467
     5  C    1.039940
     6  C    1.130738
     7  C    0.786511
     8  N   -1.083532
     9  S    0.557393
    10  C   -1.129608
    11  N   -0.168113
    12  C   -1.099747
    13  N   -0.180456
    14  C   -0.852940
    15  N   -0.182881
 Electronic spatial extent (au):  <R**2>=          23470.0903
 Charge=             -0.0000 electrons
 Dipole moment (field-independent basis, Debye):
    X=              1.8059    Y=             -1.7983    Z=             -3.9316  Tot=              4.6854

 Test job not archived.
 1\1\GINC-CHIMERA-NODE14\SP\RM05\Gen\C8N4S3\CONNORNM\19-Jan-2019\0\\#T 
 M05/Gen test Massage SCF=(fermi,maxcyc=60)\\M05 opt\\0,1\C,0,0.9273208
 3,-0.31654351,6.33694115\C,0,-0.10542383,-0.68026718,5.42756212\S,0,0.
 92921253,1.12462435,7.3426987\S,0,-1.58808583,0.2560957,5.18358202\C,0
 ,-0.80712041,1.30094581,7.65603672\C,0,-1.80293946,0.95680715,6.797225
 3\C,0,1.95933265,-1.22966511,6.25654368\N,0,0.0782113,-1.7596701,4.707
 12648\S,0,1.56576245,-2.41897985,5.05843704\C,0,-1.08990153,1.90007673
 ,8.91784758\N,0,-1.26975758,2.41323433,9.94522974\C,0,-3.17115723,1.18
 476851,7.12882096\N,0,-4.29665507,1.37867791,7.34464472\C,0,3.18032116
 ,-1.24179187,6.97362696\N,0,4.19153824,-1.26235316,7.54643861\\Version
 =AS64L-G09RevD.01\HF=-1724.7614714\RMSD=5.133e-09\Dipole=0.7104942,-0.
 7075189,-1.5468175\Quadrupole=2.350268,21.8911052,-24.2413732,4.652233
 ,8.7701956,-13.3081666\PG=C01 [X(C8N4S3)]\\@


 We find comfort among those who agree with us -- growth among those who don't.
 -- Frank A. Clark
 Job cpu time:       0 days  1 hours 36 minutes 49.6 seconds.
 File lengths (MBytes):  RWF=     58 Int=      0 D2E=      0 Chk=      6 Scr=      1
 Normal termination of Gaussian 09 at Sat Jan 19 11:18:17 2019.
