 Entering Gaussian System, Link 0=/data/szalewicgrp/connornm/opt/Gaussian/g09-M05-par/g09/g09
 AtFile(1): blind-aug.gbs
 Initial command:
 /data/szalewicgrp/connornm/opt/Gaussian/g09-M05-par/g09/l1.exe "/scratch/local/Gau-26719.inp" -scrdir="/scratch/local/"
 Entering Link 1 = /data/szalewicgrp/connornm/opt/Gaussian/g09-M05-par/g09/l1.exe PID=     26720.
  
 Copyright (c) 1988,1990,1992,1993,1995,1998,2003,2009,2013,
            Gaussian, Inc.  All Rights Reserved.
  
 This is part of the Gaussian(R) 09 program.  It is based on
 the Gaussian(R) 03 system (copyright 2003, Gaussian, Inc.),
 the Gaussian(R) 98 system (copyright 1998, Gaussian, Inc.),
 the Gaussian(R) 94 system (copyright 1995, Gaussian, Inc.),
 the Gaussian 92(TM) system (copyright 1992, Gaussian, Inc.),
 the Gaussian 90(TM) system (copyright 1990, Gaussian, Inc.),
 the Gaussian 88(TM) system (copyright 1988, Gaussian, Inc.),
 the Gaussian 86(TM) system (copyright 1986, Carnegie Mellon
 University), and the Gaussian 82(TM) system (copyright 1983,
 Carnegie Mellon University). Gaussian is a federally registered
 trademark of Gaussian, Inc.
  
 This software contains proprietary and confidential information,
 including trade secrets, belonging to Gaussian, Inc.
  
 This software is provided under written license and may be
 used, copied, transmitted, or stored only in accord with that
 written license.
  
 The following legend is applicable only to US Government
 contracts under FAR:
  
                    RESTRICTED RIGHTS LEGEND
  
 Use, reproduction and disclosure by the US Government is
 subject to restrictions as set forth in subparagraphs (a)
 and (c) of the Commercial Computer Software - Restricted
 Rights clause in FAR 52.227-19.
  
 Gaussian, Inc.
 340 Quinnipiac St., Bldg. 40, Wallingford CT 06492
  
  
 ---------------------------------------------------------------
 Warning -- This program may not be used in any manner that
 competes with the business of Gaussian, Inc. or will provide
 assistance to any competitor of Gaussian, Inc.  The licensee
 of this program is prohibited from giving any competitor of
 Gaussian, Inc. access to this program.  By using this program,
 the user acknowledges that Gaussian, Inc. is engaged in the
 business of creating and licensing software in the field of
 computational chemistry and represents and warrants to the
 licensee that it is not a competitor of Gaussian, Inc. and that
 it will not use this program in any manner prohibited above.
 ---------------------------------------------------------------
  

 Cite this work as:
 Gaussian 09, Revision D.01,
 M. J. Frisch, G. W. Trucks, H. B. Schlegel, G. E. Scuseria, 
 M. A. Robb, J. R. Cheeseman, G. Scalmani, V. Barone, B. Mennucci, 
 G. A. Petersson, H. Nakatsuji, M. Caricato, X. Li, H. P. Hratchian, 
 A. F. Izmaylov, J. Bloino, G. Zheng, J. L. Sonnenberg, M. Hada, 
 M. Ehara, K. Toyota, R. Fukuda, J. Hasegawa, M. Ishida, T. Nakajima, 
 Y. Honda, O. Kitao, H. Nakai, T. Vreven, J. A. Montgomery, Jr., 
 J. E. Peralta, F. Ogliaro, M. Bearpark, J. J. Heyd, E. Brothers, 
 K. N. Kudin, V. N. Staroverov, T. Keith, R. Kobayashi, J. Normand, 
 K. Raghavachari, A. Rendell, J. C. Burant, S. S. Iyengar, J. Tomasi, 
 M. Cossi, N. Rega, J. M. Millam, M. Klene, J. E. Knox, J. B. Cross, 
 V. Bakken, C. Adamo, J. Jaramillo, R. Gomperts, R. E. Stratmann, 
 O. Yazyev, A. J. Austin, R. Cammi, C. Pomelli, J. W. Ochterski, 
 R. L. Martin, K. Morokuma, V. G. Zakrzewski, G. A. Voth, 
 P. Salvador, J. J. Dannenberg, S. Dapprich, A. D. Daniels, 
 O. Farkas, J. B. Foresman, J. V. Ortiz, J. Cioslowski, 
 and D. J. Fox, Gaussian, Inc., Wallingford CT, 2013.
 
 ******************************************
 Gaussian 09:  AS64L-G09RevD.01 24-Apr-2013
                19-Jan-2019 
 ******************************************
 %Chk=BLIND01372_mA
 %Mem=1GB
 %NProcShared=48
 Will use up to   48 processors via shared memory.
 ---------------------------------------------
 #T M05/Gen test Massage SCF=(fermi,maxcyc=60)
 ---------------------------------------------
 -------
 M05 opt
 -------
 Symbolic Z-matrix:
 Charge =  0 Multiplicity = 1
 6                     0.43479  -0.92203   0.04391 
 6                     0.47916  -0.20934   1.27515 
 16                    0.45127  -0.18699  -1.55232 
 16                    0.52647   1.55618   1.39871 
 6                    -0.41985   1.32154  -1.22123 
 6                    -0.38693   2.01114  -0.05033 
 6                     0.44909  -2.27967   0.29274 
 7                     0.52063  -0.91483   2.37897 
 16                    0.54191  -2.53664   2.00452 
 6                    -1.15557   1.80068  -2.34383 
 7                    -1.72002   2.16346  -3.29303 
 6                    -1.08905   3.24374   0.09688 
 7                    -1.62121   4.26533   0.25209 
 6                     0.42836  -3.34471  -0.64022 
 7                     0.42122  -4.23117  -1.39204 
 
                    Distance matrix (angstroms):
                    1          2          3          4          5
     1  C    0.000000
     2  C    1.423315   0.000000
     3  S    1.757418   2.827694   0.000000
     4  S    2.825849   1.770477   3.428253   0.000000
     5  C    2.713774   3.063280   1.773167   2.795470   0.000000
     6  C    3.047557   2.727187   2.791121   1.772288   1.359281
     7  C    1.380327   2.291783   2.789903   3.992857   4.001979
     8  N    2.336642   1.310672   3.998700   2.658358   4.341342
     9  S    2.542129   2.439721   4.263822   4.137445   5.120151
    10  C    3.955208   4.450782   2.675676   4.110426   1.425163
    11  N    5.029770   5.597745   3.642685   5.237162   2.586817
    12  C    4.436049   3.971317   4.106384   2.674416   2.424897
    13  N    5.583831   5.047859   5.232040   3.642352   3.504263
    14  C    2.517432   3.674472   3.286888   5.309014   4.778168
    15  N    3.607292   4.826214   4.047461   6.425950   5.618639
                    6          7          8          9         10
     6  C    0.000000
     7  C    4.384939   0.000000
     8  N    3.909794   2.494036   0.000000
     9  S    5.076167   1.733444   1.664607   0.000000
    10  C    2.428007   5.116215   5.699860   6.371958   0.000000
    11  N    3.509330   6.107712   6.831389   7.434461   1.162408
    12  C    1.426163   5.736923   5.009263   6.301738   2.836178
    13  N    2.587713   6.864751   5.995430   7.349618   3.609722
    14  C    5.449573   1.416040   3.876636   2.767765   5.646781
    15  N    6.435818   2.578302   5.022796   3.797715   6.306769
                   11         12         13         14         15
    11  N    0.000000
    12  C    3.613393   0.000000
    13  N    4.122555   1.162293   0.000000
    14  C    6.480188   6.800997   7.931563   0.000000
    15  N    7.006418   7.769948   8.891861   1.162367   0.000000
 Symmetry turned off by external request.
 Framework group  C1[X(C8N4S3)]
 Deg. of freedom    39
 Rotational constants (GHZ):      0.7722167      0.3388923      0.2463240
   357 basis functions,   759 primitive gaussians,   387 cartesian basis functions
    62 alpha electrons       62 beta electrons
       nuclear repulsion energy      1166.1400399917 Hartrees.
 IMHF & INEx in M05                  599485                  400514
 NAtoms=   15 NActive=   15 NUniq=   15 SFac= 1.00D+00 NAtFMM=   60 NAOKFM=F Big=F
 PrsmSu:  requested number of processors reduced to:  34 ShMem   1 Linda.
 ExpMin= 3.99D-02 ExpMax= 1.11D+05 ExpMxC= 1.07D+03 IAcc=3 IRadAn=         5 AccDes= 0.00D+00
 Harris functional with IExCor= 1009 and IRadAn=       5 diagonalized for initial guess.
 HarFok:  IExCor= 1009 AccDes= 0.00D+00 IRadAn=         5 IDoV= 1 UseB2=F ITyADJ=14
 ICtDFT=  3500011 ScaDFX=  1.000000  1.000000  1.000000  1.000000
 FoFCou: FMM=F IPFlag=           0 FMFlag=      100000 FMFlg1=           0
         NFxFlg=           0 DoJE=T BraDBF=F KetDBF=T FulRan=T
         wScrn=  0.000000 ICntrl=     500 IOpCl=  0 I1Cent=   200000004 NGrid=           0
         NMat0=    1 NMatS0=      1 NMatT0=    0 NMatD0=    1 NMtDS0=    0 NMtDT0=    0
 Symmetry not used in FoFCou.
 SCF Done:  E(RM05) =  -1724.76147720     A.U. after   17 cycles
            NFock= 17  Conv=0.51D-08     -V/T= 2.0061

 **********************************************************************

            Population analysis using the SCF density.

 **********************************************************************

 Alpha  occ. eigenvalues --  -90.56429 -90.53636 -90.53182 -15.08623 -15.05416
 Alpha  occ. eigenvalues --  -15.04969 -15.04934 -10.89944 -10.89826 -10.89736
 Alpha  occ. eigenvalues --  -10.88752 -10.87415 -10.84946 -10.84332 -10.84310
 Alpha  occ. eigenvalues --   -8.57525  -8.55035  -8.54609  -6.40062  -6.39712
 Alpha  occ. eigenvalues --   -6.39400  -6.37597  -6.37282  -6.37163  -6.36853
 Alpha  occ. eigenvalues --   -6.36822  -6.36392  -1.20534  -1.12895  -1.12139
 Alpha  occ. eigenvalues --   -1.11337  -1.07643  -1.03801  -0.98824  -0.97396
 Alpha  occ. eigenvalues --   -0.88003  -0.84555  -0.82236  -0.73687  -0.71296
 Alpha  occ. eigenvalues --   -0.67838  -0.64612  -0.59530  -0.57258  -0.55386
 Alpha  occ. eigenvalues --   -0.53385  -0.52647  -0.52243  -0.51890  -0.50883
 Alpha  occ. eigenvalues --   -0.50387  -0.49356  -0.48215  -0.46805  -0.46074
 Alpha  occ. eigenvalues --   -0.45933  -0.45296  -0.43720  -0.43113  -0.39488
 Alpha  occ. eigenvalues --   -0.37627  -0.33120
 Alpha virt. eigenvalues --   -0.09329  -0.08269  -0.02099  -0.01261  -0.00501
 Alpha virt. eigenvalues --   -0.00360   0.00154   0.01255   0.02021   0.02230
 Alpha virt. eigenvalues --    0.02395   0.02957   0.03188   0.04004   0.04278
 Alpha virt. eigenvalues --    0.04489   0.05428   0.06009   0.06300   0.07068
 Alpha virt. eigenvalues --    0.07270   0.07527   0.07707   0.08292   0.08493
 Alpha virt. eigenvalues --    0.09379   0.10095   0.10394   0.10525   0.10812
 Alpha virt. eigenvalues --    0.11286   0.11394   0.11979   0.12526   0.13228
 Alpha virt. eigenvalues --    0.13489   0.13939   0.14457   0.15075   0.15192
 Alpha virt. eigenvalues --    0.15902   0.16272   0.16676   0.16813   0.17191
 Alpha virt. eigenvalues --    0.17360   0.17839   0.18611   0.19052   0.19564
 Alpha virt. eigenvalues --    0.19856   0.20237   0.20686   0.20947   0.21265
 Alpha virt. eigenvalues --    0.21878   0.22205   0.22586   0.22822   0.23618
 Alpha virt. eigenvalues --    0.23748   0.24111   0.24368   0.24701   0.25261
 Alpha virt. eigenvalues --    0.25695   0.25848   0.26223   0.26626   0.26750
 Alpha virt. eigenvalues --    0.27070   0.28335   0.29196   0.29665   0.30365
 Alpha virt. eigenvalues --    0.30712   0.32419   0.33456   0.34152   0.34715
 Alpha virt. eigenvalues --    0.34950   0.35471   0.36121   0.36939   0.37595
 Alpha virt. eigenvalues --    0.38155   0.39582   0.40726   0.41168   0.42049
 Alpha virt. eigenvalues --    0.42118   0.43486   0.44133   0.45737   0.45986
 Alpha virt. eigenvalues --    0.46959   0.48550   0.49573   0.50235   0.50594
 Alpha virt. eigenvalues --    0.51528   0.51856   0.53527   0.54167   0.54426
 Alpha virt. eigenvalues --    0.54701   0.55465   0.55731   0.55838   0.56455
 Alpha virt. eigenvalues --    0.57763   0.58139   0.58551   0.59215   0.60312
 Alpha virt. eigenvalues --    0.60553   0.61101   0.61588   0.62107   0.62708
 Alpha virt. eigenvalues --    0.63720   0.64714   0.64954   0.66010   0.66560
 Alpha virt. eigenvalues --    0.67686   0.68193   0.68808   0.70104   0.70417
 Alpha virt. eigenvalues --    0.71049   0.72860   0.73472   0.73853   0.75370
 Alpha virt. eigenvalues --    0.75563   0.76458   0.77062   0.77550   0.77848
 Alpha virt. eigenvalues --    0.78245   0.79253   0.79761   0.79877   0.81108
 Alpha virt. eigenvalues --    0.81536   0.82542   0.83272   0.83955   0.84870
 Alpha virt. eigenvalues --    0.85699   0.85940   0.87122   0.87246   0.88407
 Alpha virt. eigenvalues --    0.88460   0.89344   0.89665   0.89830   0.90734
 Alpha virt. eigenvalues --    0.91172   0.91720   0.92829   0.93724   0.94368
 Alpha virt. eigenvalues --    0.95434   0.95564   0.97325   0.98740   0.99311
 Alpha virt. eigenvalues --    0.99849   1.01206   1.02844   1.03572   1.04749
 Alpha virt. eigenvalues --    1.05759   1.06740   1.08036   1.08540   1.09634
 Alpha virt. eigenvalues --    1.10234   1.11401   1.13191   1.13605   1.14401
 Alpha virt. eigenvalues --    1.15322   1.17103   1.18341   1.20285   1.20630
 Alpha virt. eigenvalues --    1.21607   1.22697   1.23932   1.24219   1.26557
 Alpha virt. eigenvalues --    1.27345   1.29757   1.30250   1.32265   1.34127
 Alpha virt. eigenvalues --    1.37310   1.40083   1.40256   1.41567   1.42727
 Alpha virt. eigenvalues --    1.43614   1.45024   1.46459   1.47274   1.49371
 Alpha virt. eigenvalues --    1.49824   1.50473   1.51643   1.51872   1.52332
 Alpha virt. eigenvalues --    1.53713   1.54192   1.55432   1.56134   1.56451
 Alpha virt. eigenvalues --    1.56792   1.58489   1.59726   1.60389   1.60520
 Alpha virt. eigenvalues --    1.62129   1.63277   1.64920   1.66026   1.67548
 Alpha virt. eigenvalues --    1.68615   1.69178   1.70472   1.71324   1.74153
 Alpha virt. eigenvalues --    1.76827   1.77076   1.79015   1.79377   1.81043
 Alpha virt. eigenvalues --    1.82959   1.85921   1.88149   1.89702   1.90606
 Alpha virt. eigenvalues --    1.91368   1.94486   1.95006   1.97393   2.00539
 Alpha virt. eigenvalues --    2.00825   2.05449   2.07036   2.08349   2.08475
 Alpha virt. eigenvalues --    2.10896   2.13936   2.18605   2.20229   2.24593
 Alpha virt. eigenvalues --    2.27643   2.30684   2.37025   2.37402   2.38001
 Alpha virt. eigenvalues --    2.38279   2.39369   2.39930   2.40470   2.42148
 Alpha virt. eigenvalues --    2.42557   2.43755   2.45055   2.51019   2.54995
 Alpha virt. eigenvalues --    2.61157   2.64126   2.68330   2.71896   2.73263
 Alpha virt. eigenvalues --    2.76308   2.78779   2.81841   2.94680   2.99731
 Alpha virt. eigenvalues --    3.01876   3.09943   3.11450   3.15941   3.17849
 Alpha virt. eigenvalues --    3.24294   3.27130   3.35292   3.59305   3.74889
          Condensed to atoms (all electrons):
 Mulliken charges:
               1
     1  C    0.619811
     2  C   -0.107954
     3  S    0.374433
     4  S    0.295999
     5  C    1.041440
     6  C    1.130307
     7  C    0.786172
     8  N   -1.083160
     9  S    0.557683
    10  C   -1.129830
    11  N   -0.168001
    12  C   -1.100269
    13  N   -0.180572
    14  C   -0.853208
    15  N   -0.182854
 Sum of Mulliken charges =  -0.00000
 Mulliken charges with hydrogens summed into heavy atoms:
               1
     1  C    0.619811
     2  C   -0.107954
     3  S    0.374433
     4  S    0.295999
     5  C    1.041440
     6  C    1.130307
     7  C    0.786172
     8  N   -1.083160
     9  S    0.557683
    10  C   -1.129830
    11  N   -0.168001
    12  C   -1.100269
    13  N   -0.180572
    14  C   -0.853208
    15  N   -0.182854
 Electronic spatial extent (au):  <R**2>=           4013.7192
 Charge=              0.0000 electrons
 Dipole moment (field-independent basis, Debye):
    X=              2.7188    Y=             -2.2168    Z=              3.1056  Tot=              4.6852

 Test job not archived.
 1\1\GINC-CHIMERA-NODE21\SP\RM05\Gen\C8N4S3\CONNORNM\19-Jan-2019\0\\#T 
 M05/Gen test Massage SCF=(fermi,maxcyc=60)\\M05 opt\\0,1\C,0,0.4347891
 3,-0.9220298,0.04391318\C,0,0.47915897,-0.20934139,1.27514558\S,0,0.45
 126669,-0.18699494,-1.55232266\S,0,0.52646974,1.55618463,1.39870892\C,
 0,-0.41984516,1.32153539,-1.22122979\C,0,-0.38692901,2.01114285,-0.050
 33179\C,0,0.44909107,-2.27966802,0.29274473\N,0,0.52062969,-0.91483288
 ,2.3789671\S,0,0.54190804,-2.53663871,2.0045209\C,0,-1.15557169,1.8006
 7613,-2.34382512\N,0,-1.72001988,2.16345615,-3.2930258\C,0,-1.08904883
 ,3.24374097,0.09688092\N,0,-1.62120507,4.26533162,0.25208533\C,0,0.428
 36307,-3.34471127,-0.64021918\N,0,0.42122178,-4.23116949,-1.39204146\\
 Version=AS64L-G09RevD.01\HF=-1724.7614772\RMSD=5.140e-09\Dipole=1.0696
 748,-0.8721592,1.2218243\Quadrupole=7.0655827,-8.3038383,1.2382556,7.4
 325249,-3.2763925,-3.5532254\PG=C01 [X(C8N4S3)]\\@


 THE MOST BEAUTIFUL EXPERIENCE WE CAN HAVE IS THE MYSTERIOUS.
 IT IS THE FUNDAMENTAL EMOTION WHICH STANDS AT AT THE CRADLE 
 OF TRUE ART AND TRUE SCIENCE.

                                    -- ALBERT EINSTEIN
 Job cpu time:       0 days  1 hours 37 minutes 13.5 seconds.
 File lengths (MBytes):  RWF=     58 Int=      0 D2E=      0 Chk=      6 Scr=      1
 Normal termination of Gaussian 09 at Sat Jan 19 11:18:38 2019.
