 Entering Gaussian System, Link 0=/data/szalewicgrp/connornm/opt/Gaussian/g09-M05-par/g09/g09
 AtFile(1): blind-aug.gbs
 Initial command:
 /data/szalewicgrp/connornm/opt/Gaussian/g09-M05-par/g09/l1.exe "/scratch/local/Gau-46064.inp" -scrdir="/scratch/local/"
 Entering Link 1 = /data/szalewicgrp/connornm/opt/Gaussian/g09-M05-par/g09/l1.exe PID=     46065.
  
 Copyright (c) 1988,1990,1992,1993,1995,1998,2003,2009,2013,
            Gaussian, Inc.  All Rights Reserved.
  
 This is part of the Gaussian(R) 09 program.  It is based on
 the Gaussian(R) 03 system (copyright 2003, Gaussian, Inc.),
 the Gaussian(R) 98 system (copyright 1998, Gaussian, Inc.),
 the Gaussian(R) 94 system (copyright 1995, Gaussian, Inc.),
 the Gaussian 92(TM) system (copyright 1992, Gaussian, Inc.),
 the Gaussian 90(TM) system (copyright 1990, Gaussian, Inc.),
 the Gaussian 88(TM) system (copyright 1988, Gaussian, Inc.),
 the Gaussian 86(TM) system (copyright 1986, Carnegie Mellon
 University), and the Gaussian 82(TM) system (copyright 1983,
 Carnegie Mellon University). Gaussian is a federally registered
 trademark of Gaussian, Inc.
  
 This software contains proprietary and confidential information,
 including trade secrets, belonging to Gaussian, Inc.
  
 This software is provided under written license and may be
 used, copied, transmitted, or stored only in accord with that
 written license.
  
 The following legend is applicable only to US Government
 contracts under FAR:
  
                    RESTRICTED RIGHTS LEGEND
  
 Use, reproduction and disclosure by the US Government is
 subject to restrictions as set forth in subparagraphs (a)
 and (c) of the Commercial Computer Software - Restricted
 Rights clause in FAR 52.227-19.
  
 Gaussian, Inc.
 340 Quinnipiac St., Bldg. 40, Wallingford CT 06492
  
  
 ---------------------------------------------------------------
 Warning -- This program may not be used in any manner that
 competes with the business of Gaussian, Inc. or will provide
 assistance to any competitor of Gaussian, Inc.  The licensee
 of this program is prohibited from giving any competitor of
 Gaussian, Inc. access to this program.  By using this program,
 the user acknowledges that Gaussian, Inc. is engaged in the
 business of creating and licensing software in the field of
 computational chemistry and represents and warrants to the
 licensee that it is not a competitor of Gaussian, Inc. and that
 it will not use this program in any manner prohibited above.
 ---------------------------------------------------------------
  

 Cite this work as:
 Gaussian 09, Revision D.01,
 M. J. Frisch, G. W. Trucks, H. B. Schlegel, G. E. Scuseria, 
 M. A. Robb, J. R. Cheeseman, G. Scalmani, V. Barone, B. Mennucci, 
 G. A. Petersson, H. Nakatsuji, M. Caricato, X. Li, H. P. Hratchian, 
 A. F. Izmaylov, J. Bloino, G. Zheng, J. L. Sonnenberg, M. Hada, 
 M. Ehara, K. Toyota, R. Fukuda, J. Hasegawa, M. Ishida, T. Nakajima, 
 Y. Honda, O. Kitao, H. Nakai, T. Vreven, J. A. Montgomery, Jr., 
 J. E. Peralta, F. Ogliaro, M. Bearpark, J. J. Heyd, E. Brothers, 
 K. N. Kudin, V. N. Staroverov, T. Keith, R. Kobayashi, J. Normand, 
 K. Raghavachari, A. Rendell, J. C. Burant, S. S. Iyengar, J. Tomasi, 
 M. Cossi, N. Rega, J. M. Millam, M. Klene, J. E. Knox, J. B. Cross, 
 V. Bakken, C. Adamo, J. Jaramillo, R. Gomperts, R. E. Stratmann, 
 O. Yazyev, A. J. Austin, R. Cammi, C. Pomelli, J. W. Ochterski, 
 R. L. Martin, K. Morokuma, V. G. Zakrzewski, G. A. Voth, 
 P. Salvador, J. J. Dannenberg, S. Dapprich, A. D. Daniels, 
 O. Farkas, J. B. Foresman, J. V. Ortiz, J. Cioslowski, 
 and D. J. Fox, Gaussian, Inc., Wallingford CT, 2013.
 
 ******************************************
 Gaussian 09:  AS64L-G09RevD.01 24-Apr-2013
                19-Jan-2019 
 ******************************************
 %Chk=BLIND01372_mB
 %Mem=1GB
 %NProcShared=48
 Will use up to   48 processors via shared memory.
 ---------------------------------------------
 #T M05/Gen test Massage SCF=(fermi,maxcyc=60)
 ---------------------------------------------
 -------
 M05 opt
 -------
 Symbolic Z-matrix:
 Charge =  0 Multiplicity = 1
 6                     0.23255   0.25897   6.6989 
 6                     1.369    -0.03621   7.50336 
 16                   -1.35832  -0.46279   6.89052 
 16                    1.35448  -1.16874   8.86416 
 6                    -1.3934   -0.70331   8.64695 
 6                    -0.31605  -0.98446   9.42664 
 6                     0.58758   1.14407   5.70098 
 7                     2.49928   0.54733   7.18743 
 16                    2.27878   1.49845   5.83922 
 6                    -2.70542  -0.61923   9.19705 
 7                    -3.79615  -0.56518   9.59527 
 6                    -0.46072  -1.20723   10.82785 
 7                    -0.53564  -1.42458   11.96717 
 6                    -0.22684   1.68967   4.67912 
 7                    -0.8783    2.13988   3.82823 
 
                    Distance matrix (angstroms):
                    1          2          3          4          5
     1  C    0.000000
     2  C    1.423315   0.000000
     3  S    1.757418   2.827694   0.000000
     4  S    2.825849   1.770477   3.428253   0.000000
     5  C    2.713774   3.063280   1.773167   2.795470   0.000000
     6  C    3.047557   2.727187   2.791121   1.772288   1.359281
     7  C    1.380327   2.291783   2.789903   3.992857   4.001979
     8  N    2.336642   1.310672   3.998700   2.658358   4.341342
     9  S    2.542129   2.439721   4.263822   4.137445   5.120151
    10  C    3.955208   4.450782   2.675676   4.110426   1.425163
    11  N    5.029770   5.597745   3.642685   5.237162   2.586817
    12  C    4.436049   3.971317   4.106384   2.674416   2.424897
    13  N    5.583831   5.047859   5.232040   3.642352   3.504263
    14  C    2.517432   3.674472   3.286888   5.309014   4.778168
    15  N    3.607292   4.826214   4.047461   6.425950   5.618639
                    6          7          8          9         10
     6  C    0.000000
     7  C    4.384939   0.000000
     8  N    3.909794   2.494036   0.000000
     9  S    5.076167   1.733444   1.664607   0.000000
    10  C    2.428007   5.116215   5.699860   6.371958   0.000000
    11  N    3.509330   6.107712   6.831389   7.434461   1.162408
    12  C    1.426163   5.736923   5.009263   6.301738   2.836178
    13  N    2.587713   6.864751   5.995430   7.349618   3.609722
    14  C    5.449573   1.416040   3.876636   2.767765   5.646781
    15  N    6.435818   2.578302   5.022796   3.797715   6.306769
                   11         12         13         14         15
    11  N    0.000000
    12  C    3.613393   0.000000
    13  N    4.122555   1.162293   0.000000
    14  C    6.480188   6.800997   7.931563   0.000000
    15  N    7.006418   7.769948   8.891861   1.162367   0.000000
 Symmetry turned off by external request.
 Framework group  C1[X(C8N4S3)]
 Deg. of freedom    39
 Rotational constants (GHZ):      0.7722167      0.3388923      0.2463240
   357 basis functions,   759 primitive gaussians,   387 cartesian basis functions
    62 alpha electrons       62 beta electrons
       nuclear repulsion energy      1166.1400391733 Hartrees.
 IMHF & INEx in M05                  599485                  400514
 NAtoms=   15 NActive=   15 NUniq=   15 SFac= 1.00D+00 NAtFMM=   60 NAOKFM=F Big=F
 PrsmSu:  requested number of processors reduced to:  34 ShMem   1 Linda.
 ExpMin= 3.99D-02 ExpMax= 1.11D+05 ExpMxC= 1.07D+03 IAcc=3 IRadAn=         5 AccDes= 0.00D+00
 Harris functional with IExCor= 1009 and IRadAn=       5 diagonalized for initial guess.
 HarFok:  IExCor= 1009 AccDes= 0.00D+00 IRadAn=         5 IDoV= 1 UseB2=F ITyADJ=14
 ICtDFT=  3500011 ScaDFX=  1.000000  1.000000  1.000000  1.000000
 FoFCou: FMM=F IPFlag=           0 FMFlag=      100000 FMFlg1=           0
         NFxFlg=           0 DoJE=T BraDBF=F KetDBF=T FulRan=T
         wScrn=  0.000000 ICntrl=     500 IOpCl=  0 I1Cent=   200000004 NGrid=           0
         NMat0=    1 NMatS0=      1 NMatT0=    0 NMatD0=    1 NMtDS0=    0 NMtDT0=    0
 Symmetry not used in FoFCou.
 SCF Done:  E(RM05) =  -1724.76148105     A.U. after   17 cycles
            NFock= 17  Conv=0.52D-08     -V/T= 2.0061

 **********************************************************************

            Population analysis using the SCF density.

 **********************************************************************

 Alpha  occ. eigenvalues --  -90.56429 -90.53637 -90.53181 -15.08622 -15.05416
 Alpha  occ. eigenvalues --  -15.04969 -15.04934 -10.89945 -10.89827 -10.89736
 Alpha  occ. eigenvalues --  -10.88752 -10.87414 -10.84946 -10.84331 -10.84311
 Alpha  occ. eigenvalues --   -8.57524  -8.55036  -8.54609  -6.40062  -6.39711
 Alpha  occ. eigenvalues --   -6.39400  -6.37598  -6.37283  -6.37162  -6.36852
 Alpha  occ. eigenvalues --   -6.36823  -6.36392  -1.20533  -1.12895  -1.12139
 Alpha  occ. eigenvalues --   -1.11337  -1.07643  -1.03801  -0.98824  -0.97396
 Alpha  occ. eigenvalues --   -0.88003  -0.84555  -0.82236  -0.73687  -0.71296
 Alpha  occ. eigenvalues --   -0.67838  -0.64612  -0.59530  -0.57258  -0.55386
 Alpha  occ. eigenvalues --   -0.53385  -0.52647  -0.52243  -0.51890  -0.50883
 Alpha  occ. eigenvalues --   -0.50387  -0.49356  -0.48215  -0.46805  -0.46074
 Alpha  occ. eigenvalues --   -0.45933  -0.45296  -0.43720  -0.43113  -0.39488
 Alpha  occ. eigenvalues --   -0.37628  -0.33120
 Alpha virt. eigenvalues --   -0.09329  -0.08269  -0.02099  -0.01262  -0.00504
 Alpha virt. eigenvalues --   -0.00360   0.00152   0.01254   0.02020   0.02230
 Alpha virt. eigenvalues --    0.02393   0.02956   0.03187   0.04004   0.04275
 Alpha virt. eigenvalues --    0.04488   0.05427   0.06006   0.06300   0.07068
 Alpha virt. eigenvalues --    0.07269   0.07526   0.07706   0.08291   0.08490
 Alpha virt. eigenvalues --    0.09375   0.10094   0.10396   0.10524   0.10811
 Alpha virt. eigenvalues --    0.11286   0.11396   0.11979   0.12524   0.13226
 Alpha virt. eigenvalues --    0.13489   0.13938   0.14451   0.15074   0.15190
 Alpha virt. eigenvalues --    0.15901   0.16270   0.16676   0.16812   0.17186
 Alpha virt. eigenvalues --    0.17358   0.17839   0.18614   0.19050   0.19561
 Alpha virt. eigenvalues --    0.19853   0.20238   0.20686   0.20951   0.21265
 Alpha virt. eigenvalues --    0.21879   0.22205   0.22582   0.22822   0.23615
 Alpha virt. eigenvalues --    0.23748   0.24114   0.24368   0.24703   0.25259
 Alpha virt. eigenvalues --    0.25695   0.25851   0.26226   0.26621   0.26749
 Alpha virt. eigenvalues --    0.27067   0.28334   0.29196   0.29661   0.30369
 Alpha virt. eigenvalues --    0.30712   0.32422   0.33455   0.34156   0.34714
 Alpha virt. eigenvalues --    0.34948   0.35472   0.36121   0.36935   0.37594
 Alpha virt. eigenvalues --    0.38153   0.39578   0.40730   0.41170   0.42050
 Alpha virt. eigenvalues --    0.42118   0.43485   0.44134   0.45740   0.45983
 Alpha virt. eigenvalues --    0.46959   0.48551   0.49571   0.50232   0.50595
 Alpha virt. eigenvalues --    0.51527   0.51858   0.53527   0.54170   0.54424
 Alpha virt. eigenvalues --    0.54702   0.55466   0.55734   0.55840   0.56454
 Alpha virt. eigenvalues --    0.57771   0.58140   0.58556   0.59219   0.60313
 Alpha virt. eigenvalues --    0.60557   0.61102   0.61588   0.62105   0.62714
 Alpha virt. eigenvalues --    0.63711   0.64715   0.64953   0.66005   0.66556
 Alpha virt. eigenvalues --    0.67688   0.68189   0.68808   0.70107   0.70421
 Alpha virt. eigenvalues --    0.71050   0.72865   0.73470   0.73856   0.75369
 Alpha virt. eigenvalues --    0.75568   0.76458   0.77062   0.77554   0.77844
 Alpha virt. eigenvalues --    0.78246   0.79255   0.79760   0.79880   0.81108
 Alpha virt. eigenvalues --    0.81536   0.82544   0.83277   0.83957   0.84870
 Alpha virt. eigenvalues --    0.85697   0.85940   0.87124   0.87250   0.88404
 Alpha virt. eigenvalues --    0.88459   0.89346   0.89667   0.89830   0.90730
 Alpha virt. eigenvalues --    0.91172   0.91722   0.92833   0.93723   0.94371
 Alpha virt. eigenvalues --    0.95432   0.95568   0.97326   0.98745   0.99314
 Alpha virt. eigenvalues --    0.99851   1.01207   1.02846   1.03577   1.04752
 Alpha virt. eigenvalues --    1.05757   1.06750   1.08039   1.08543   1.09639
 Alpha virt. eigenvalues --    1.10234   1.11399   1.13196   1.13607   1.14403
 Alpha virt. eigenvalues --    1.15324   1.17104   1.18344   1.20288   1.20631
 Alpha virt. eigenvalues --    1.21612   1.22700   1.23938   1.24222   1.26562
 Alpha virt. eigenvalues --    1.27345   1.29759   1.30251   1.32268   1.34124
 Alpha virt. eigenvalues --    1.37312   1.40082   1.40257   1.41567   1.42730
 Alpha virt. eigenvalues --    1.43615   1.45023   1.46462   1.47275   1.49371
 Alpha virt. eigenvalues --    1.49823   1.50474   1.51644   1.51868   1.52334
 Alpha virt. eigenvalues --    1.53718   1.54195   1.55430   1.56139   1.56453
 Alpha virt. eigenvalues --    1.56789   1.58486   1.59730   1.60390   1.60516
 Alpha virt. eigenvalues --    1.62129   1.63277   1.64920   1.66029   1.67548
 Alpha virt. eigenvalues --    1.68614   1.69177   1.70470   1.71322   1.74148
 Alpha virt. eigenvalues --    1.76827   1.77079   1.79017   1.79376   1.81043
 Alpha virt. eigenvalues --    1.82957   1.85918   1.88150   1.89704   1.90607
 Alpha virt. eigenvalues --    1.91369   1.94486   1.95006   1.97396   2.00538
 Alpha virt. eigenvalues --    2.00829   2.05448   2.07037   2.08351   2.08472
 Alpha virt. eigenvalues --    2.10898   2.13938   2.18608   2.20235   2.24595
 Alpha virt. eigenvalues --    2.27644   2.30685   2.37027   2.37401   2.38002
 Alpha virt. eigenvalues --    2.38280   2.39369   2.39930   2.40470   2.42148
 Alpha virt. eigenvalues --    2.42559   2.43757   2.45057   2.51020   2.54996
 Alpha virt. eigenvalues --    2.61154   2.64125   2.68329   2.71898   2.73264
 Alpha virt. eigenvalues --    2.76309   2.78780   2.81841   2.94679   2.99730
 Alpha virt. eigenvalues --    3.01877   3.09942   3.11450   3.15939   3.17849
 Alpha virt. eigenvalues --    3.24293   3.27127   3.35294   3.59307   3.74887
          Condensed to atoms (all electrons):
 Mulliken charges:
               1
     1  C    0.620227
     2  C   -0.108649
     3  S    0.373619
     4  S    0.296429
     5  C    1.040064
     6  C    1.131281
     7  C    0.787038
     8  N   -1.083212
     9  S    0.557361
    10  C   -1.130051
    11  N   -0.167860
    12  C   -1.099966
    13  N   -0.180363
    14  C   -0.852973
    15  N   -0.182943
 Sum of Mulliken charges =  -0.00000
 Mulliken charges with hydrogens summed into heavy atoms:
               1
     1  C    0.620227
     2  C   -0.108649
     3  S    0.373619
     4  S    0.296429
     5  C    1.040064
     6  C    1.131281
     7  C    0.787038
     8  N   -1.083212
     9  S    0.557361
    10  C   -1.130051
    11  N   -0.167860
    12  C   -1.099966
    13  N   -0.180363
    14  C   -0.852973
    15  N   -0.182943
 Electronic spatial extent (au):  <R**2>=          30014.5065
 Charge=             -0.0000 electrons
 Dipole moment (field-independent basis, Debye):
    X=              3.8828    Y=             -0.1888    Z=             -2.6154  Tot=              4.6853

 Test job not archived.
 1\1\GINC-CHIMERA-NODE56\SP\RM05\Gen\C8N4S3\CONNORNM\19-Jan-2019\0\\#T 
 M05/Gen test Massage SCF=(fermi,maxcyc=60)\\M05 opt\\0,1\C,0,0.2325461
 3,0.25896634,6.69890006\C,0,1.36900449,-0.03621473,7.50336086\S,0,-1.3
 5832326,-0.46278992,6.89052242\S,0,1.35448235,-1.16873581,8.86415969\C
 ,0,-1.39339836,-0.7033078,8.64695146\C,0,-0.3160455,-0.98445668,9.4266
 374\C,0,0.58758243,1.14407066,5.70098083\N,0,2.4992813,0.54732584,7.18
 74261\S,0,2.27877504,1.49844892,5.83922034\C,0,-2.70542249,-0.61923227
 ,9.19705476\N,0,-3.79615496,-0.5651752,9.59526768\C,0,-0.46071982,-1.2
 0722772,10.82784558\N,0,-0.53564349,-1.42458468,11.96717368\C,0,-0.226
 8425,1.68966575,4.67911661\N,0,-0.87830109,2.1398828,3.8282334\\Versio
 n=AS64L-G09RevD.01\HF=-1724.7614811\RMSD=5.158e-09\Dipole=1.5275937,-0
 .0742812,-1.0289684\Quadrupole=10.0894835,19.3089483,-29.3984318,2.035
 9354,22.7835635,5.6067512\PG=C01 [X(C8N4S3)]\\@


 Any fool can criticize, condemn, and complain -- and most do.
 -- Dale Carnegie
 Job cpu time:       0 days  1 hours 36 minutes 32.5 seconds.
 File lengths (MBytes):  RWF=     58 Int=      0 D2E=      0 Chk=      6 Scr=      1
 Normal termination of Gaussian 09 at Sat Jan 19 11:16:52 2019.
