 Entering Gaussian System, Link 0=/data/szalewicgrp/connornm/opt/Gaussian/g09-M05-par/g09/g09
 AtFile(1): blind-aug.gbs
 Initial command:
 /data/szalewicgrp/connornm/opt/Gaussian/g09-M05-par/g09/l1.exe "/scratch/local/Gau-33614.inp" -scrdir="/scratch/local/"
 Entering Link 1 = /data/szalewicgrp/connornm/opt/Gaussian/g09-M05-par/g09/l1.exe PID=     33615.
  
 Copyright (c) 1988,1990,1992,1993,1995,1998,2003,2009,2013,
            Gaussian, Inc.  All Rights Reserved.
  
 This is part of the Gaussian(R) 09 program.  It is based on
 the Gaussian(R) 03 system (copyright 2003, Gaussian, Inc.),
 the Gaussian(R) 98 system (copyright 1998, Gaussian, Inc.),
 the Gaussian(R) 94 system (copyright 1995, Gaussian, Inc.),
 the Gaussian 92(TM) system (copyright 1992, Gaussian, Inc.),
 the Gaussian 90(TM) system (copyright 1990, Gaussian, Inc.),
 the Gaussian 88(TM) system (copyright 1988, Gaussian, Inc.),
 the Gaussian 86(TM) system (copyright 1986, Carnegie Mellon
 University), and the Gaussian 82(TM) system (copyright 1983,
 Carnegie Mellon University). Gaussian is a federally registered
 trademark of Gaussian, Inc.
  
 This software contains proprietary and confidential information,
 including trade secrets, belonging to Gaussian, Inc.
  
 This software is provided under written license and may be
 used, copied, transmitted, or stored only in accord with that
 written license.
  
 The following legend is applicable only to US Government
 contracts under FAR:
  
                    RESTRICTED RIGHTS LEGEND
  
 Use, reproduction and disclosure by the US Government is
 subject to restrictions as set forth in subparagraphs (a)
 and (c) of the Commercial Computer Software - Restricted
 Rights clause in FAR 52.227-19.
  
 Gaussian, Inc.
 340 Quinnipiac St., Bldg. 40, Wallingford CT 06492
  
  
 ---------------------------------------------------------------
 Warning -- This program may not be used in any manner that
 competes with the business of Gaussian, Inc. or will provide
 assistance to any competitor of Gaussian, Inc.  The licensee
 of this program is prohibited from giving any competitor of
 Gaussian, Inc. access to this program.  By using this program,
 the user acknowledges that Gaussian, Inc. is engaged in the
 business of creating and licensing software in the field of
 computational chemistry and represents and warrants to the
 licensee that it is not a competitor of Gaussian, Inc. and that
 it will not use this program in any manner prohibited above.
 ---------------------------------------------------------------
  

 Cite this work as:
 Gaussian 09, Revision D.01,
 M. J. Frisch, G. W. Trucks, H. B. Schlegel, G. E. Scuseria, 
 M. A. Robb, J. R. Cheeseman, G. Scalmani, V. Barone, B. Mennucci, 
 G. A. Petersson, H. Nakatsuji, M. Caricato, X. Li, H. P. Hratchian, 
 A. F. Izmaylov, J. Bloino, G. Zheng, J. L. Sonnenberg, M. Hada, 
 M. Ehara, K. Toyota, R. Fukuda, J. Hasegawa, M. Ishida, T. Nakajima, 
 Y. Honda, O. Kitao, H. Nakai, T. Vreven, J. A. Montgomery, Jr., 
 J. E. Peralta, F. Ogliaro, M. Bearpark, J. J. Heyd, E. Brothers, 
 K. N. Kudin, V. N. Staroverov, T. Keith, R. Kobayashi, J. Normand, 
 K. Raghavachari, A. Rendell, J. C. Burant, S. S. Iyengar, J. Tomasi, 
 M. Cossi, N. Rega, J. M. Millam, M. Klene, J. E. Knox, J. B. Cross, 
 V. Bakken, C. Adamo, J. Jaramillo, R. Gomperts, R. E. Stratmann, 
 O. Yazyev, A. J. Austin, R. Cammi, C. Pomelli, J. W. Ochterski, 
 R. L. Martin, K. Morokuma, V. G. Zakrzewski, G. A. Voth, 
 P. Salvador, J. J. Dannenberg, S. Dapprich, A. D. Daniels, 
 O. Farkas, J. B. Foresman, J. V. Ortiz, J. Cioslowski, 
 and D. J. Fox, Gaussian, Inc., Wallingford CT, 2013.
 
 ******************************************
 Gaussian 09:  AS64L-G09RevD.01 24-Apr-2013
                19-Jan-2019 
 ******************************************
 %Chk=BLIND01088_mB
 %Mem=1GB
 %NProcShared=48
 Will use up to   48 processors via shared memory.
 ---------------------------------------------
 #T M05/Gen test Massage SCF=(fermi,maxcyc=60)
 ---------------------------------------------
 -------
 M05 opt
 -------
 Symbolic Z-matrix:
 Charge =  0 Multiplicity = 1
 6                    -0.39936  -0.33546   9.28165 
 6                    -1.25369   0.5494    8.56542 
 16                    0.76878  -1.42678   8.5516 
 16                   -1.25462   0.71827   6.80302 
 6                     1.24929  -0.48071   7.13097 
 6                     0.44415   0.36809   6.43892 
 6                    -0.67766  -0.25815   10.63142 
 7                    -2.11203   1.25397   9.26163 
 16                   -1.97199   0.86888   10.87501 
 6                     2.5937   -0.72395   6.72542 
 7                     3.68706  -0.973     6.41926 
 6                     0.91726   1.0472    5.27749 
 7                     1.2509    1.59841   4.31014 
 6                    -0.07498  -0.97191   11.69561 
 7                     0.40204  -1.55566   12.58035 
 
                    Distance matrix (angstroms):
                    1          2          3          4          5
     1  C    0.000000
     2  C    1.423315   0.000000
     3  S    1.757418   2.827694   0.000000
     4  S    2.825849   1.770477   3.428253   0.000000
     5  C    2.713774   3.063280   1.773167   2.795470   0.000000
     6  C    3.047557   2.727187   2.791121   1.772288   1.359281
     7  C    1.380327   2.291783   2.789903   3.992857   4.001979
     8  N    2.336642   1.310672   3.998700   2.658358   4.341342
     9  S    2.542129   2.439721   4.263822   4.137445   5.120151
    10  C    3.955208   4.450782   2.675676   4.110426   1.425163
    11  N    5.029770   5.597745   3.642685   5.237162   2.586817
    12  C    4.436049   3.971317   4.106384   2.674416   2.424897
    13  N    5.583831   5.047859   5.232040   3.642352   3.504263
    14  C    2.517432   3.674472   3.286888   5.309014   4.778168
    15  N    3.607292   4.826214   4.047461   6.425950   5.618639
                    6          7          8          9         10
     6  C    0.000000
     7  C    4.384939   0.000000
     8  N    3.909794   2.494036   0.000000
     9  S    5.076167   1.733444   1.664607   0.000000
    10  C    2.428007   5.116215   5.699860   6.371958   0.000000
    11  N    3.509330   6.107712   6.831389   7.434461   1.162408
    12  C    1.426163   5.736923   5.009263   6.301738   2.836178
    13  N    2.587713   6.864751   5.995430   7.349618   3.609722
    14  C    5.449573   1.416040   3.876636   2.767765   5.646781
    15  N    6.435818   2.578302   5.022796   3.797715   6.306769
                   11         12         13         14         15
    11  N    0.000000
    12  C    3.613393   0.000000
    13  N    4.122555   1.162293   0.000000
    14  C    6.480188   6.800997   7.931563   0.000000
    15  N    7.006418   7.769948   8.891861   1.162367   0.000000
 Symmetry turned off by external request.
 Framework group  C1[X(C8N4S3)]
 Deg. of freedom    39
 Rotational constants (GHZ):      0.7722167      0.3388923      0.2463240
   357 basis functions,   759 primitive gaussians,   387 cartesian basis functions
    62 alpha electrons       62 beta electrons
       nuclear repulsion energy      1166.1400395693 Hartrees.
 IMHF & INEx in M05                  599485                  400514
 NAtoms=   15 NActive=   15 NUniq=   15 SFac= 1.00D+00 NAtFMM=   60 NAOKFM=F Big=F
 PrsmSu:  requested number of processors reduced to:  34 ShMem   1 Linda.
 ExpMin= 3.99D-02 ExpMax= 1.11D+05 ExpMxC= 1.07D+03 IAcc=3 IRadAn=         5 AccDes= 0.00D+00
 Harris functional with IExCor= 1009 and IRadAn=       5 diagonalized for initial guess.
 HarFok:  IExCor= 1009 AccDes= 0.00D+00 IRadAn=         5 IDoV= 1 UseB2=F ITyADJ=14
 ICtDFT=  3500011 ScaDFX=  1.000000  1.000000  1.000000  1.000000
 FoFCou: FMM=F IPFlag=           0 FMFlag=      100000 FMFlg1=           0
         NFxFlg=           0 DoJE=T BraDBF=F KetDBF=T FulRan=T
         wScrn=  0.000000 ICntrl=     500 IOpCl=  0 I1Cent=   200000004 NGrid=           0
         NMat0=    1 NMatS0=      1 NMatT0=    0 NMatD0=    1 NMtDS0=    0 NMtDT0=    0
 Symmetry not used in FoFCou.
 SCF Done:  E(RM05) =  -1724.76147243     A.U. after   17 cycles
            NFock= 17  Conv=0.51D-08     -V/T= 2.0061

 **********************************************************************

            Population analysis using the SCF density.

 **********************************************************************

 Alpha  occ. eigenvalues --  -90.56430 -90.53636 -90.53182 -15.08622 -15.05417
 Alpha  occ. eigenvalues --  -15.04969 -15.04934 -10.89945 -10.89826 -10.89736
 Alpha  occ. eigenvalues --  -10.88752 -10.87413 -10.84947 -10.84332 -10.84310
 Alpha  occ. eigenvalues --   -8.57525  -8.55036  -8.54609  -6.40063  -6.39712
 Alpha  occ. eigenvalues --   -6.39401  -6.37597  -6.37283  -6.37163  -6.36853
 Alpha  occ. eigenvalues --   -6.36822  -6.36392  -1.20533  -1.12895  -1.12139
 Alpha  occ. eigenvalues --   -1.11337  -1.07643  -1.03801  -0.98824  -0.97396
 Alpha  occ. eigenvalues --   -0.88002  -0.84555  -0.82236  -0.73686  -0.71296
 Alpha  occ. eigenvalues --   -0.67838  -0.64612  -0.59530  -0.57258  -0.55386
 Alpha  occ. eigenvalues --   -0.53385  -0.52648  -0.52243  -0.51890  -0.50883
 Alpha  occ. eigenvalues --   -0.50387  -0.49356  -0.48215  -0.46805  -0.46074
 Alpha  occ. eigenvalues --   -0.45933  -0.45296  -0.43720  -0.43113  -0.39488
 Alpha  occ. eigenvalues --   -0.37628  -0.33119
 Alpha virt. eigenvalues --   -0.09329  -0.08268  -0.02098  -0.01263  -0.00503
 Alpha virt. eigenvalues --   -0.00361   0.00154   0.01255   0.02022   0.02228
 Alpha virt. eigenvalues --    0.02393   0.02957   0.03190   0.04004   0.04276
 Alpha virt. eigenvalues --    0.04484   0.05427   0.06006   0.06302   0.07067
 Alpha virt. eigenvalues --    0.07272   0.07524   0.07708   0.08289   0.08492
 Alpha virt. eigenvalues --    0.09377   0.10091   0.10394   0.10526   0.10809
 Alpha virt. eigenvalues --    0.11289   0.11389   0.11978   0.12528   0.13231
 Alpha virt. eigenvalues --    0.13488   0.13934   0.14454   0.15077   0.15189
 Alpha virt. eigenvalues --    0.15904   0.16281   0.16680   0.16813   0.17188
 Alpha virt. eigenvalues --    0.17362   0.17841   0.18615   0.19051   0.19568
 Alpha virt. eigenvalues --    0.19860   0.20245   0.20683   0.20942   0.21274
 Alpha virt. eigenvalues --    0.21888   0.22211   0.22578   0.22825   0.23607
 Alpha virt. eigenvalues --    0.23753   0.24117   0.24372   0.24705   0.25258
 Alpha virt. eigenvalues --    0.25693   0.25858   0.26224   0.26625   0.26746
 Alpha virt. eigenvalues --    0.27067   0.28335   0.29192   0.29660   0.30368
 Alpha virt. eigenvalues --    0.30711   0.32418   0.33457   0.34156   0.34717
 Alpha virt. eigenvalues --    0.34948   0.35471   0.36120   0.36937   0.37593
 Alpha virt. eigenvalues --    0.38150   0.39576   0.40728   0.41170   0.42050
 Alpha virt. eigenvalues --    0.42118   0.43484   0.44135   0.45732   0.45983
 Alpha virt. eigenvalues --    0.46961   0.48553   0.49573   0.50232   0.50594
 Alpha virt. eigenvalues --    0.51525   0.51855   0.53527   0.54162   0.54419
 Alpha virt. eigenvalues --    0.54702   0.55466   0.55729   0.55837   0.56447
 Alpha virt. eigenvalues --    0.57771   0.58138   0.58557   0.59218   0.60313
 Alpha virt. eigenvalues --    0.60550   0.61101   0.61584   0.62106   0.62710
 Alpha virt. eigenvalues --    0.63717   0.64718   0.64953   0.66008   0.66559
 Alpha virt. eigenvalues --    0.67688   0.68189   0.68805   0.70105   0.70413
 Alpha virt. eigenvalues --    0.71047   0.72863   0.73467   0.73856   0.75374
 Alpha virt. eigenvalues --    0.75562   0.76457   0.77062   0.77552   0.77840
 Alpha virt. eigenvalues --    0.78247   0.79253   0.79761   0.79881   0.81108
 Alpha virt. eigenvalues --    0.81535   0.82548   0.83276   0.83957   0.84870
 Alpha virt. eigenvalues --    0.85698   0.85940   0.87123   0.87246   0.88403
 Alpha virt. eigenvalues --    0.88458   0.89344   0.89667   0.89829   0.90731
 Alpha virt. eigenvalues --    0.91170   0.91724   0.92829   0.93721   0.94368
 Alpha virt. eigenvalues --    0.95432   0.95567   0.97324   0.98746   0.99310
 Alpha virt. eigenvalues --    0.99846   1.01203   1.02849   1.03576   1.04748
 Alpha virt. eigenvalues --    1.05762   1.06742   1.08038   1.08541   1.09634
 Alpha virt. eigenvalues --    1.10235   1.11403   1.13202   1.13606   1.14402
 Alpha virt. eigenvalues --    1.15321   1.17102   1.18343   1.20284   1.20632
 Alpha virt. eigenvalues --    1.21610   1.22703   1.23934   1.24221   1.26555
 Alpha virt. eigenvalues --    1.27345   1.29758   1.30250   1.32274   1.34126
 Alpha virt. eigenvalues --    1.37314   1.40083   1.40258   1.41567   1.42730
 Alpha virt. eigenvalues --    1.43615   1.45025   1.46463   1.47272   1.49369
 Alpha virt. eigenvalues --    1.49823   1.50475   1.51641   1.51867   1.52331
 Alpha virt. eigenvalues --    1.53716   1.54193   1.55429   1.56136   1.56449
 Alpha virt. eigenvalues --    1.56790   1.58485   1.59724   1.60390   1.60515
 Alpha virt. eigenvalues --    1.62131   1.63285   1.64922   1.66030   1.67546
 Alpha virt. eigenvalues --    1.68614   1.69171   1.70470   1.71323   1.74150
 Alpha virt. eigenvalues --    1.76827   1.77077   1.79016   1.79375   1.81040
 Alpha virt. eigenvalues --    1.82955   1.85918   1.88146   1.89704   1.90607
 Alpha virt. eigenvalues --    1.91369   1.94486   1.95005   1.97392   2.00540
 Alpha virt. eigenvalues --    2.00826   2.05448   2.07035   2.08350   2.08473
 Alpha virt. eigenvalues --    2.10898   2.13936   2.18606   2.20233   2.24591
 Alpha virt. eigenvalues --    2.27645   2.30687   2.37026   2.37401   2.38001
 Alpha virt. eigenvalues --    2.38279   2.39370   2.39930   2.40470   2.42151
 Alpha virt. eigenvalues --    2.42559   2.43753   2.45057   2.51019   2.54996
 Alpha virt. eigenvalues --    2.61158   2.64127   2.68329   2.71898   2.73263
 Alpha virt. eigenvalues --    2.76308   2.78779   2.81840   2.94680   2.99731
 Alpha virt. eigenvalues --    3.01876   3.09943   3.11449   3.15940   3.17850
 Alpha virt. eigenvalues --    3.24292   3.27129   3.35292   3.59307   3.74892
          Condensed to atoms (all electrons):
 Mulliken charges:
               1
     1  C    0.620180
     2  C   -0.110231
     3  S    0.374292
     4  S    0.297287
     5  C    1.040257
     6  C    1.131506
     7  C    0.786925
     8  N   -1.083178
     9  S    0.557548
    10  C   -1.129436
    11  N   -0.167938
    12  C   -1.100654
    13  N   -0.180427
    14  C   -0.853240
    15  N   -0.182891
 Sum of Mulliken charges =  -0.00000
 Mulliken charges with hydrogens summed into heavy atoms:
               1
     1  C    0.620180
     2  C   -0.110231
     3  S    0.374292
     4  S    0.297287
     5  C    1.040257
     6  C    1.131506
     7  C    0.786925
     8  N   -1.083178
     9  S    0.557548
    10  C   -1.129436
    11  N   -0.167938
    12  C   -1.100654
    13  N   -0.180427
    14  C   -0.853240
    15  N   -0.182891
 Electronic spatial extent (au):  <R**2>=          35267.5402
 Charge=             -0.0000 electrons
 Dipole moment (field-independent basis, Debye):
    X=             -4.2601    Y=              0.1335    Z=              1.9451  Tot=              4.6851

 Test job not archived.
 1\1\GINC-CHIMERA-NODE23\SP\RM05\Gen\C8N4S3\CONNORNM\19-Jan-2019\0\\#T 
 M05/Gen test Massage SCF=(fermi,maxcyc=60)\\M05 opt\\0,1\C,0,-0.399357
 42,-0.33545547,9.28165163\C,0,-1.25368847,0.54939723,8.56542486\S,0,0.
 76878154,-1.42678037,8.5515982\S,0,-1.25461632,0.71827344,6.80302073\C
 ,0,1.2492877,-0.48071214,7.13096778\C,0,0.44414985,0.36809127,6.438920
 18\C,0,-0.67766312,-0.25814819,10.63141929\N,0,-2.11202638,1.25396621,
 9.26162785\S,0,-1.97199305,0.86888231,10.87501496\C,0,2.59370398,-0.72
 395031,6.72541914\N,0,3.68706219,-0.9730008,6.41925789\C,0,0.91726459,
 1.04719543,5.2774892\N,0,1.25089923,1.59841353,4.31013577\C,0,-0.07498
 473,-0.97190955,11.69560533\N,0,0.40204235,-1.55566462,12.58034885\\Ve
 rsion=AS64L-G09RevD.01\HF=-1724.7614724\RMSD=5.106e-09\Dipole=-1.67606
 51,0.0525262,0.7652773\Quadrupole=-7.6583464,-1.7565946,9.414941,2.136
 3243,-23.1603963,9.721466\PG=C01 [X(C8N4S3)]\\@


 At the touch of love, everyone becomves a poet.
                                -- Plato
 Job cpu time:       0 days  1 hours 36 minutes 47.4 seconds.
 File lengths (MBytes):  RWF=     58 Int=      0 D2E=      0 Chk=      6 Scr=      1
 Normal termination of Gaussian 09 at Sat Jan 19 11:11:35 2019.
