 Entering Gaussian System, Link 0=/data/szalewicgrp/connornm/opt/Gaussian/g09-M05-par/g09/g09
 AtFile(1): blind-aug.gbs
 Initial command:
 /data/szalewicgrp/connornm/opt/Gaussian/g09-M05-par/g09/l1.exe "/scratch/local/Gau-5981.inp" -scrdir="/scratch/local/"
 Entering Link 1 = /data/szalewicgrp/connornm/opt/Gaussian/g09-M05-par/g09/l1.exe PID=      5982.
  
 Copyright (c) 1988,1990,1992,1993,1995,1998,2003,2009,2013,
            Gaussian, Inc.  All Rights Reserved.
  
 This is part of the Gaussian(R) 09 program.  It is based on
 the Gaussian(R) 03 system (copyright 2003, Gaussian, Inc.),
 the Gaussian(R) 98 system (copyright 1998, Gaussian, Inc.),
 the Gaussian(R) 94 system (copyright 1995, Gaussian, Inc.),
 the Gaussian 92(TM) system (copyright 1992, Gaussian, Inc.),
 the Gaussian 90(TM) system (copyright 1990, Gaussian, Inc.),
 the Gaussian 88(TM) system (copyright 1988, Gaussian, Inc.),
 the Gaussian 86(TM) system (copyright 1986, Carnegie Mellon
 University), and the Gaussian 82(TM) system (copyright 1983,
 Carnegie Mellon University). Gaussian is a federally registered
 trademark of Gaussian, Inc.
  
 This software contains proprietary and confidential information,
 including trade secrets, belonging to Gaussian, Inc.
  
 This software is provided under written license and may be
 used, copied, transmitted, or stored only in accord with that
 written license.
  
 The following legend is applicable only to US Government
 contracts under FAR:
  
                    RESTRICTED RIGHTS LEGEND
  
 Use, reproduction and disclosure by the US Government is
 subject to restrictions as set forth in subparagraphs (a)
 and (c) of the Commercial Computer Software - Restricted
 Rights clause in FAR 52.227-19.
  
 Gaussian, Inc.
 340 Quinnipiac St., Bldg. 40, Wallingford CT 06492
  
  
 ---------------------------------------------------------------
 Warning -- This program may not be used in any manner that
 competes with the business of Gaussian, Inc. or will provide
 assistance to any competitor of Gaussian, Inc.  The licensee
 of this program is prohibited from giving any competitor of
 Gaussian, Inc. access to this program.  By using this program,
 the user acknowledges that Gaussian, Inc. is engaged in the
 business of creating and licensing software in the field of
 computational chemistry and represents and warrants to the
 licensee that it is not a competitor of Gaussian, Inc. and that
 it will not use this program in any manner prohibited above.
 ---------------------------------------------------------------
  

 Cite this work as:
 Gaussian 09, Revision D.01,
 M. J. Frisch, G. W. Trucks, H. B. Schlegel, G. E. Scuseria, 
 M. A. Robb, J. R. Cheeseman, G. Scalmani, V. Barone, B. Mennucci, 
 G. A. Petersson, H. Nakatsuji, M. Caricato, X. Li, H. P. Hratchian, 
 A. F. Izmaylov, J. Bloino, G. Zheng, J. L. Sonnenberg, M. Hada, 
 M. Ehara, K. Toyota, R. Fukuda, J. Hasegawa, M. Ishida, T. Nakajima, 
 Y. Honda, O. Kitao, H. Nakai, T. Vreven, J. A. Montgomery, Jr., 
 J. E. Peralta, F. Ogliaro, M. Bearpark, J. J. Heyd, E. Brothers, 
 K. N. Kudin, V. N. Staroverov, T. Keith, R. Kobayashi, J. Normand, 
 K. Raghavachari, A. Rendell, J. C. Burant, S. S. Iyengar, J. Tomasi, 
 M. Cossi, N. Rega, J. M. Millam, M. Klene, J. E. Knox, J. B. Cross, 
 V. Bakken, C. Adamo, J. Jaramillo, R. Gomperts, R. E. Stratmann, 
 O. Yazyev, A. J. Austin, R. Cammi, C. Pomelli, J. W. Ochterski, 
 R. L. Martin, K. Morokuma, V. G. Zakrzewski, G. A. Voth, 
 P. Salvador, J. J. Dannenberg, S. Dapprich, A. D. Daniels, 
 O. Farkas, J. B. Foresman, J. V. Ortiz, J. Cioslowski, 
 and D. J. Fox, Gaussian, Inc., Wallingford CT, 2013.
 
 ******************************************
 Gaussian 09:  AS64L-G09RevD.01 24-Apr-2013
                19-Jan-2019 
 ******************************************
 %Chk=BLIND02606_mB
 %Mem=1GB
 %NProcShared=48
 Will use up to   48 processors via shared memory.
 ---------------------------------------------
 #T M05/Gen test Massage SCF=(fermi,maxcyc=60)
 ---------------------------------------------
 -------
 M05 opt
 -------
 Symbolic Z-matrix:
 Charge =  0 Multiplicity = 1
 6                    -0.59513   0.74089   7.10263 
 6                    -0.82457  -0.53066   6.50567 
 16                   -0.05873   1.00103   8.75584 
 16                   -0.57262  -2.07545   7.33315 
 6                     0.96154  -0.42979   8.9923 
 6                     0.75435  -1.6488    8.42774 
 6                    -0.92631   1.73959   6.2092 
 7                    -1.28232  -0.54638   5.27764 
 16                   -1.50724   1.01481   4.74563 
 6                     2.03979  -0.20479   9.89665 
 7                     2.88899   0.02007   10.65789 
 6                     1.61092  -2.75043   8.72205 
 7                     2.26507  -3.68237   8.9555 
 6                    -0.86247   3.14195   6.39489 
 7                    -0.82535   4.29548   6.53304 
 
                    Distance matrix (angstroms):
                    1          2          3          4          5
     1  C    0.000000
     2  C    1.423315   0.000000
     3  S    1.757418   2.827694   0.000000
     4  S    2.825849   1.770477   3.428253   0.000000
     5  C    2.713774   3.063280   1.773167   2.795470   0.000000
     6  C    3.047557   2.727187   2.791121   1.772288   1.359281
     7  C    1.380327   2.291783   2.789903   3.992857   4.001979
     8  N    2.336642   1.310672   3.998700   2.658358   4.341342
     9  S    2.542129   2.439721   4.263822   4.137445   5.120151
    10  C    3.955208   4.450782   2.675676   4.110426   1.425163
    11  N    5.029770   5.597745   3.642685   5.237162   2.586817
    12  C    4.436049   3.971317   4.106384   2.674416   2.424897
    13  N    5.583831   5.047859   5.232040   3.642352   3.504263
    14  C    2.517432   3.674472   3.286888   5.309014   4.778168
    15  N    3.607292   4.826214   4.047461   6.425950   5.618639
                    6          7          8          9         10
     6  C    0.000000
     7  C    4.384939   0.000000
     8  N    3.909794   2.494036   0.000000
     9  S    5.076167   1.733444   1.664607   0.000000
    10  C    2.428007   5.116215   5.699860   6.371958   0.000000
    11  N    3.509330   6.107712   6.831389   7.434461   1.162408
    12  C    1.426163   5.736923   5.009263   6.301738   2.836178
    13  N    2.587713   6.864751   5.995430   7.349618   3.609722
    14  C    5.449573   1.416040   3.876636   2.767765   5.646781
    15  N    6.435818   2.578302   5.022796   3.797715   6.306769
                   11         12         13         14         15
    11  N    0.000000
    12  C    3.613393   0.000000
    13  N    4.122555   1.162293   0.000000
    14  C    6.480188   6.800997   7.931563   0.000000
    15  N    7.006418   7.769948   8.891861   1.162367   0.000000
 Symmetry turned off by external request.
 Framework group  C1[X(C8N4S3)]
 Deg. of freedom    39
 Rotational constants (GHZ):      0.7722167      0.3388923      0.2463240
   357 basis functions,   759 primitive gaussians,   387 cartesian basis functions
    62 alpha electrons       62 beta electrons
       nuclear repulsion energy      1166.1400396901 Hartrees.
 IMHF & INEx in M05                  599485                  400514
 NAtoms=   15 NActive=   15 NUniq=   15 SFac= 1.00D+00 NAtFMM=   60 NAOKFM=F Big=F
 PrsmSu:  requested number of processors reduced to:  34 ShMem   1 Linda.
 ExpMin= 3.99D-02 ExpMax= 1.11D+05 ExpMxC= 1.07D+03 IAcc=3 IRadAn=         5 AccDes= 0.00D+00
 Harris functional with IExCor= 1009 and IRadAn=       5 diagonalized for initial guess.
 HarFok:  IExCor= 1009 AccDes= 0.00D+00 IRadAn=         5 IDoV= 1 UseB2=F ITyADJ=14
 ICtDFT=  3500011 ScaDFX=  1.000000  1.000000  1.000000  1.000000
 FoFCou: FMM=F IPFlag=           0 FMFlag=      100000 FMFlg1=           0
         NFxFlg=           0 DoJE=T BraDBF=F KetDBF=T FulRan=T
         wScrn=  0.000000 ICntrl=     500 IOpCl=  0 I1Cent=   200000004 NGrid=           0
         NMat0=    1 NMatS0=      1 NMatT0=    0 NMatD0=    1 NMtDS0=    0 NMtDT0=    0
 Symmetry not used in FoFCou.
 SCF Done:  E(RM05) =  -1724.76146365     A.U. after   17 cycles
            NFock= 17  Conv=0.51D-08     -V/T= 2.0061

 **********************************************************************

            Population analysis using the SCF density.

 **********************************************************************

 Alpha  occ. eigenvalues --  -90.56431 -90.53634 -90.53182 -15.08621 -15.05417
 Alpha  occ. eigenvalues --  -15.04969 -15.04934 -10.89945 -10.89826 -10.89736
 Alpha  occ. eigenvalues --  -10.88752 -10.87414 -10.84947 -10.84332 -10.84310
 Alpha  occ. eigenvalues --   -8.57526  -8.55034  -8.54609  -6.40063  -6.39713
 Alpha  occ. eigenvalues --   -6.39401  -6.37596  -6.37281  -6.37162  -6.36852
 Alpha  occ. eigenvalues --   -6.36820  -6.36392  -1.20533  -1.12895  -1.12139
 Alpha  occ. eigenvalues --   -1.11337  -1.07643  -1.03801  -0.98824  -0.97396
 Alpha  occ. eigenvalues --   -0.88003  -0.84555  -0.82236  -0.73687  -0.71296
 Alpha  occ. eigenvalues --   -0.67838  -0.64612  -0.59530  -0.57258  -0.55386
 Alpha  occ. eigenvalues --   -0.53385  -0.52648  -0.52243  -0.51890  -0.50883
 Alpha  occ. eigenvalues --   -0.50387  -0.49356  -0.48215  -0.46805  -0.46074
 Alpha  occ. eigenvalues --   -0.45933  -0.45296  -0.43720  -0.43113  -0.39488
 Alpha  occ. eigenvalues --   -0.37627  -0.33119
 Alpha virt. eigenvalues --   -0.09329  -0.08268  -0.02098  -0.01263  -0.00506
 Alpha virt. eigenvalues --   -0.00361   0.00153   0.01255   0.02017   0.02227
 Alpha virt. eigenvalues --    0.02395   0.02957   0.03187   0.04003   0.04276
 Alpha virt. eigenvalues --    0.04486   0.05428   0.06008   0.06295   0.07069
 Alpha virt. eigenvalues --    0.07268   0.07526   0.07707   0.08288   0.08491
 Alpha virt. eigenvalues --    0.09378   0.10094   0.10390   0.10525   0.10806
 Alpha virt. eigenvalues --    0.11288   0.11392   0.11977   0.12527   0.13228
 Alpha virt. eigenvalues --    0.13493   0.13936   0.14458   0.15075   0.15190
 Alpha virt. eigenvalues --    0.15900   0.16270   0.16679   0.16813   0.17191
 Alpha virt. eigenvalues --    0.17356   0.17838   0.18609   0.19050   0.19559
 Alpha virt. eigenvalues --    0.19862   0.20236   0.20685   0.20945   0.21266
 Alpha virt. eigenvalues --    0.21881   0.22207   0.22583   0.22821   0.23615
 Alpha virt. eigenvalues --    0.23748   0.24113   0.24364   0.24700   0.25260
 Alpha virt. eigenvalues --    0.25697   0.25852   0.26225   0.26623   0.26748
 Alpha virt. eigenvalues --    0.27066   0.28331   0.29196   0.29661   0.30369
 Alpha virt. eigenvalues --    0.30707   0.32419   0.33459   0.34154   0.34714
 Alpha virt. eigenvalues --    0.34950   0.35471   0.36119   0.36936   0.37594
 Alpha virt. eigenvalues --    0.38151   0.39577   0.40728   0.41168   0.42050
 Alpha virt. eigenvalues --    0.42116   0.43485   0.44135   0.45737   0.45978
 Alpha virt. eigenvalues --    0.46960   0.48549   0.49573   0.50234   0.50597
 Alpha virt. eigenvalues --    0.51523   0.51856   0.53530   0.54168   0.54420
 Alpha virt. eigenvalues --    0.54701   0.55467   0.55735   0.55838   0.56452
 Alpha virt. eigenvalues --    0.57769   0.58139   0.58556   0.59213   0.60312
 Alpha virt. eigenvalues --    0.60550   0.61102   0.61588   0.62106   0.62709
 Alpha virt. eigenvalues --    0.63719   0.64719   0.64954   0.66008   0.66557
 Alpha virt. eigenvalues --    0.67688   0.68193   0.68804   0.70106   0.70412
 Alpha virt. eigenvalues --    0.71047   0.72862   0.73468   0.73856   0.75368
 Alpha virt. eigenvalues --    0.75566   0.76455   0.77064   0.77550   0.77842
 Alpha virt. eigenvalues --    0.78241   0.79253   0.79760   0.79878   0.81105
 Alpha virt. eigenvalues --    0.81535   0.82544   0.83275   0.83955   0.84869
 Alpha virt. eigenvalues --    0.85698   0.85939   0.87123   0.87247   0.88403
 Alpha virt. eigenvalues --    0.88459   0.89346   0.89667   0.89829   0.90728
 Alpha virt. eigenvalues --    0.91171   0.91724   0.92830   0.93721   0.94367
 Alpha virt. eigenvalues --    0.95431   0.95564   0.97327   0.98744   0.99312
 Alpha virt. eigenvalues --    0.99846   1.01204   1.02846   1.03574   1.04751
 Alpha virt. eigenvalues --    1.05757   1.06745   1.08037   1.08540   1.09632
 Alpha virt. eigenvalues --    1.10232   1.11399   1.13192   1.13606   1.14402
 Alpha virt. eigenvalues --    1.15320   1.17099   1.18345   1.20286   1.20629
 Alpha virt. eigenvalues --    1.21607   1.22699   1.23936   1.24220   1.26558
 Alpha virt. eigenvalues --    1.27346   1.29757   1.30250   1.32274   1.34124
 Alpha virt. eigenvalues --    1.37313   1.40080   1.40257   1.41566   1.42729
 Alpha virt. eigenvalues --    1.43615   1.45023   1.46461   1.47272   1.49372
 Alpha virt. eigenvalues --    1.49822   1.50475   1.51640   1.51868   1.52334
 Alpha virt. eigenvalues --    1.53714   1.54191   1.55430   1.56136   1.56450
 Alpha virt. eigenvalues --    1.56789   1.58486   1.59726   1.60391   1.60515
 Alpha virt. eigenvalues --    1.62130   1.63281   1.64922   1.66029   1.67545
 Alpha virt. eigenvalues --    1.68614   1.69173   1.70473   1.71325   1.74151
 Alpha virt. eigenvalues --    1.76828   1.77080   1.79017   1.79376   1.81043
 Alpha virt. eigenvalues --    1.82959   1.85921   1.88149   1.89704   1.90608
 Alpha virt. eigenvalues --    1.91369   1.94486   1.95007   1.97394   2.00542
 Alpha virt. eigenvalues --    2.00828   2.05448   2.07035   2.08352   2.08474
 Alpha virt. eigenvalues --    2.10896   2.13936   2.18607   2.20233   2.24594
 Alpha virt. eigenvalues --    2.27645   2.30685   2.37026   2.37401   2.38001
 Alpha virt. eigenvalues --    2.38279   2.39369   2.39930   2.40470   2.42150
 Alpha virt. eigenvalues --    2.42559   2.43755   2.45057   2.51019   2.54996
 Alpha virt. eigenvalues --    2.61155   2.64125   2.68330   2.71897   2.73263
 Alpha virt. eigenvalues --    2.76308   2.78780   2.81840   2.94680   2.99730
 Alpha virt. eigenvalues --    3.01877   3.09944   3.11451   3.15941   3.17850
 Alpha virt. eigenvalues --    3.24293   3.27131   3.35293   3.59306   3.74889
          Condensed to atoms (all electrons):
 Mulliken charges:
               1
     1  C    0.619988
     2  C   -0.109537
     3  S    0.374303
     4  S    0.296879
     5  C    1.039680
     6  C    1.131590
     7  C    0.786675
     8  N   -1.083437
     9  S    0.557444
    10  C   -1.129652
    11  N   -0.167982
    12  C   -1.099433
    13  N   -0.180678
    14  C   -0.852951
    15  N   -0.182888
 Sum of Mulliken charges =  -0.00000
 Mulliken charges with hydrogens summed into heavy atoms:
               1
     1  C    0.619988
     2  C   -0.109537
     3  S    0.374303
     4  S    0.296879
     5  C    1.039680
     6  C    1.131590
     7  C    0.786675
     8  N   -1.083437
     9  S    0.557444
    10  C   -1.129652
    11  N   -0.167982
    12  C   -1.099433
    13  N   -0.180678
    14  C   -0.852951
    15  N   -0.182888
 Electronic spatial extent (au):  <R**2>=          28782.8265
 Charge=             -0.0000 electrons
 Dipole moment (field-independent basis, Debye):
    X=             -3.7964    Y=              0.1135    Z=             -2.7434  Tot=              4.6852

 Test job not archived.
 1\1\GINC-CHIMERA-NODE25\SP\RM05\Gen\C8N4S3\CONNORNM\19-Jan-2019\0\\#T 
 M05/Gen test Massage SCF=(fermi,maxcyc=60)\\M05 opt\\0,1\C,0,-0.595131
 34,0.74088939,7.10263028\C,0,-0.82456742,-0.53065565,6.50567219\S,0,-0
 .05872949,1.00103462,8.75584356\S,0,-0.57261743,-2.07545203,7.33314647
 \C,0,0.96154451,-0.42978751,8.99229881\C,0,0.7543497,-1.64879673,8.427
 73624\C,0,-0.92630658,1.73959104,6.20919802\N,0,-1.28232278,-0.5463794
 8,5.27763603\S,0,-1.5072449,1.01480576,4.74563267\C,0,2.03979176,-0.20
 479043,9.89664875\N,0,2.88899374,0.02006606,10.65789022\C,0,1.61092236
 ,-2.75043363,8.7220513\N,0,2.26507434,-3.68237346,8.95550251\C,0,-0.86
 247258,3.14195064,6.39488921\N,0,-0.82534583,4.29548101,6.53303837\\Ve
 rsion=AS64L-G09RevD.01\HF=-1724.7614637\RMSD=5.149e-09\Dipole=-1.49361
 07,0.044638,-1.0793283\Quadrupole=12.4060183,1.5970714,-14.0030897,5.3
 095123,-28.1591957,1.8598321\PG=C01 [X(C8N4S3)]\\@


 A HARD FALL SHOULD MEAN A HIGH BOUNCE 
 IF ONE IS MADE OF THE RIGHT MATERIAL.

                -- THE CHEMIST ANALYST, MARCH 1950
 Job cpu time:       0 days  1 hours 39 minutes 25.1 seconds.
 File lengths (MBytes):  RWF=     58 Int=      0 D2E=      0 Chk=      6 Scr=      1
 Normal termination of Gaussian 09 at Sat Jan 19 11:14:45 2019.
