 Entering Gaussian System, Link 0=/data/szalewicgrp/connornm/opt/Gaussian/g09-M05-par/g09/g09
 AtFile(1): blind-aug.gbs
 Initial command:
 /data/szalewicgrp/connornm/opt/Gaussian/g09-M05-par/g09/l1.exe "/scratch/local/Gau-33742.inp" -scrdir="/scratch/local/"
 Entering Link 1 = /data/szalewicgrp/connornm/opt/Gaussian/g09-M05-par/g09/l1.exe PID=     33743.
  
 Copyright (c) 1988,1990,1992,1993,1995,1998,2003,2009,2013,
            Gaussian, Inc.  All Rights Reserved.
  
 This is part of the Gaussian(R) 09 program.  It is based on
 the Gaussian(R) 03 system (copyright 2003, Gaussian, Inc.),
 the Gaussian(R) 98 system (copyright 1998, Gaussian, Inc.),
 the Gaussian(R) 94 system (copyright 1995, Gaussian, Inc.),
 the Gaussian 92(TM) system (copyright 1992, Gaussian, Inc.),
 the Gaussian 90(TM) system (copyright 1990, Gaussian, Inc.),
 the Gaussian 88(TM) system (copyright 1988, Gaussian, Inc.),
 the Gaussian 86(TM) system (copyright 1986, Carnegie Mellon
 University), and the Gaussian 82(TM) system (copyright 1983,
 Carnegie Mellon University). Gaussian is a federally registered
 trademark of Gaussian, Inc.
  
 This software contains proprietary and confidential information,
 including trade secrets, belonging to Gaussian, Inc.
  
 This software is provided under written license and may be
 used, copied, transmitted, or stored only in accord with that
 written license.
  
 The following legend is applicable only to US Government
 contracts under FAR:
  
                    RESTRICTED RIGHTS LEGEND
  
 Use, reproduction and disclosure by the US Government is
 subject to restrictions as set forth in subparagraphs (a)
 and (c) of the Commercial Computer Software - Restricted
 Rights clause in FAR 52.227-19.
  
 Gaussian, Inc.
 340 Quinnipiac St., Bldg. 40, Wallingford CT 06492
  
  
 ---------------------------------------------------------------
 Warning -- This program may not be used in any manner that
 competes with the business of Gaussian, Inc. or will provide
 assistance to any competitor of Gaussian, Inc.  The licensee
 of this program is prohibited from giving any competitor of
 Gaussian, Inc. access to this program.  By using this program,
 the user acknowledges that Gaussian, Inc. is engaged in the
 business of creating and licensing software in the field of
 computational chemistry and represents and warrants to the
 licensee that it is not a competitor of Gaussian, Inc. and that
 it will not use this program in any manner prohibited above.
 ---------------------------------------------------------------
  

 Cite this work as:
 Gaussian 09, Revision D.01,
 M. J. Frisch, G. W. Trucks, H. B. Schlegel, G. E. Scuseria, 
 M. A. Robb, J. R. Cheeseman, G. Scalmani, V. Barone, B. Mennucci, 
 G. A. Petersson, H. Nakatsuji, M. Caricato, X. Li, H. P. Hratchian, 
 A. F. Izmaylov, J. Bloino, G. Zheng, J. L. Sonnenberg, M. Hada, 
 M. Ehara, K. Toyota, R. Fukuda, J. Hasegawa, M. Ishida, T. Nakajima, 
 Y. Honda, O. Kitao, H. Nakai, T. Vreven, J. A. Montgomery, Jr., 
 J. E. Peralta, F. Ogliaro, M. Bearpark, J. J. Heyd, E. Brothers, 
 K. N. Kudin, V. N. Staroverov, T. Keith, R. Kobayashi, J. Normand, 
 K. Raghavachari, A. Rendell, J. C. Burant, S. S. Iyengar, J. Tomasi, 
 M. Cossi, N. Rega, J. M. Millam, M. Klene, J. E. Knox, J. B. Cross, 
 V. Bakken, C. Adamo, J. Jaramillo, R. Gomperts, R. E. Stratmann, 
 O. Yazyev, A. J. Austin, R. Cammi, C. Pomelli, J. W. Ochterski, 
 R. L. Martin, K. Morokuma, V. G. Zakrzewski, G. A. Voth, 
 P. Salvador, J. J. Dannenberg, S. Dapprich, A. D. Daniels, 
 O. Farkas, J. B. Foresman, J. V. Ortiz, J. Cioslowski, 
 and D. J. Fox, Gaussian, Inc., Wallingford CT, 2013.
 
 ******************************************
 Gaussian 09:  AS64L-G09RevD.01 24-Apr-2013
                19-Jan-2019 
 ******************************************
 %Chk=BLIND00247
 %Mem=1GB
 %NProcShared=48
 Will use up to   48 processors via shared memory.
 ---------------------------------------------
 #T M05/Gen test Massage SCF=(fermi,maxcyc=60)
 ---------------------------------------------
 -------
 M05 opt
 -------
 Symbolic Z-matrix:
 Charge =  0 Multiplicity = 1
 6                    -0.65658  -0.78102   0.00402 
 6                     0.40436  -0.92065   0.9425 
 16                   -1.34878   0.74649  -0.52139 
 16                    1.22942   0.44073   1.71743 
 6                     0.08144   1.79176  -0.44394 
 6                     1.10154   1.66874   0.44595 
 6                    -1.10689  -2.02912  -0.37647 
 7                     0.76236  -2.13792   1.27104 
 16                   -0.20131  -3.2373    0.47503 
 6                     0.05614   2.84643  -1.40213 
 7                    -0.02079   3.70294  -2.18422 
 6                     2.18631   2.59457   0.45336 
 7                     3.07444   3.34182   0.51479 
 6                    -2.15026  -2.34997  -1.27847 
 7                    -3.00959  -2.63158  -2.00877 
 6                     0.53531  -0.82672   5.07696 
 6                     1.33106   0.21715   5.62735 
 16                   -1.14012  -1.15107   5.49677 
 16                    0.74399   1.39162   6.81502 
 6                    -1.71301   0.49372   5.82933 
 6                    -0.96372   1.49948   6.35339 
 6                     1.30004  -1.58919   4.21722 
 7                     2.58424   0.2833    5.24914 
 16                    2.91601  -0.96228   4.19587 
 6                    -3.09504   0.67547   5.53261 
 7                    -4.22974   0.76828   5.29799 
 6                    -1.53602   2.77679   6.62705 
 7                    -1.96697   3.82294   6.8931 
 6                     0.91142  -2.72692   3.46908 
 7                     0.61237  -3.66753   2.85514 
 
                    Distance matrix (angstroms):
                    1          2          3          4          5
     1  C    0.000000
     2  C    1.423315   0.000000
     3  S    1.757418   2.827694   0.000000
     4  S    2.825849   1.770477   3.428253   0.000000
     5  C    2.713774   3.063280   1.773167   2.795470   0.000000
     6  C    3.047557   2.727187   2.791121   1.772288   1.359281
     7  C    1.380327   2.291783   2.789903   3.992857   4.001979
     8  N    2.336642   1.310672   3.998700   2.658358   4.341342
     9  S    2.542129   2.439721   4.263822   4.137445   5.120151
    10  C    3.955208   4.450782   2.675676   4.110426   1.425163
    11  N    5.029770   5.597745   3.642685   5.237162   2.586817
    12  C    4.436049   3.971317   4.106384   2.674416   2.424897
    13  N    5.583831   5.047859   5.232040   3.642352   3.504263
    14  C    2.517432   3.674472   3.286888   5.309014   4.778168
    15  N    3.607292   4.826214   4.047461   6.425950   5.618639
    16  C    5.211274   4.137595   6.112802   3.657143   6.127220
    17  C    6.047217   4.909289   6.728206   3.917625   6.395427
    18  S    5.526392   4.814545   6.313679   4.736242   6.741255
    19  S    7.285027   6.320470   7.656291   5.208191   7.300109
    20  C    6.056010   5.510424   6.366181   5.056527   6.652740
    21  C    6.753484   6.083287   6.926609   5.236695   6.883424
    22  C    4.715139   3.460199   5.909834   3.220956   5.885769
    23  N    6.256749   4.974783   6.998731   3.785936   6.399269
    24  S    5.510695   4.110289   6.584896   3.309938   6.094862
    25  C    6.215532   5.988533   6.301229   5.771633   6.859694
    26  N    6.572213   6.580094   6.493507   6.536830   7.252833
    27  C    7.569411   7.053383   7.433532   6.099938   7.320204
    28  N    8.388866   7.970852   8.051176   6.960162   7.883774
    29  C    4.272205   3.146951   5.752995   3.633650   6.034821
    30  N    4.251000   3.353624   5.893272   4.307312   6.400756
                    6          7          8          9         10
     6  C    0.000000
     7  C    4.384939   0.000000
     8  N    3.909794   2.494036   0.000000
     9  S    5.076167   1.733444   1.664607   0.000000
    10  C    2.428007   5.116215   5.699860   6.371958   0.000000
    11  N    3.509330   6.107712   6.831389   7.434461   1.162408
    12  C    1.426163   5.736923   5.009263   6.301738   2.836178
    13  N    2.587713   6.864751   5.995430   7.349618   3.609722
    14  C    5.449573   1.416040   3.876636   2.767765   5.646781
    15  N    6.435818   2.578302   5.022796   3.797715   6.306769
    16  C    5.290954   5.820865   4.031848   5.247019   7.463259
    17  C    5.385781   6.858218   4.984694   6.389657   7.612623
    18  S    6.203800   5.938604   4.738151   5.518292   8.062619
    19  S    6.385113   8.175861   6.572187   7.906697   8.373236
    20  C    6.187339   6.726373   5.816441   6.698824   7.807634
    21  C    6.260335   7.600171   6.483852   7.587719   7.937406
    22  C    4.987584   5.204695   3.044699   4.355950   7.266301
    23  N    5.214257   7.114714   5.000679   6.553315   7.563088
    24  S    4.927112   6.182885   3.817711   5.360779   7.350013
    25  C    6.668737   6.795946   6.399666   7.018732   7.920458
    26  N    7.264686   7.055299   7.041549   7.452108   8.220646
    27  C    6.811058   8.504722   7.623897   8.706210   8.185809
    28  N    7.458023   9.371933   8.636476   9.703413   8.594028
    29  C    5.338281   4.398719   2.280461   3.234651   7.451335
    30  N    5.875305   4.010427   2.207160   2.551878   7.801629
                   11         12         13         14         15
    11  N    0.000000
    12  C    3.613393   0.000000
    13  N    4.122555   1.162293   0.000000
    14  C    6.480188   6.800997   7.931563   0.000000
    15  N    7.006418   7.769948   8.891861   1.162367   0.000000
    16  C    8.576236   5.984034   6.681117   7.065691   8.125968
    17  C    8.660183   5.757919   6.240284   8.148618   9.234002
    18  S    9.154884   7.108507   7.922670   6.954245   7.875271
    19  S    9.322733   6.633099   6.994797   9.374467  10.398782
    20  C    8.796575   6.965578   7.699073   7.668021   8.537236
    21  C    8.867644   6.777328   7.334180   8.629683   9.548663
    22  C    8.410095   5.697012   6.416492   6.533448   7.643459
    23  N    8.586906   5.338519   5.657645   8.482876   9.615853
    24  S    8.431759   5.214401   5.665750   7.586899   8.740523
    25  C    8.841162   7.574589   8.387522   7.512439   8.235067
    26  N    9.072538   8.244475   9.102368   7.569516   8.150864
    27  C    8.988442   7.211332   7.676935   9.442362  10.295593
    28  N    9.284381   7.760721   8.144332  10.242706  11.044964
    29  C    8.612310   6.248048   7.087738   5.661727   6.737228
    30  N    8.950970   6.889098   7.789092   5.143420   6.152187
                   16         17         18         19         20
    16  C    0.000000
    17  C    1.423315   0.000000
    18  S    1.757418   2.827694   0.000000
    19  S    2.825849   1.770477   3.428253   0.000000
    20  C    2.713774   3.063280   1.773167   2.795470   0.000000
    21  C    3.047557   2.727187   2.791121   1.772288   1.359281
    22  C    1.380327   2.291783   2.789903   3.992857   4.001979
    23  N    2.336642   1.310672   3.998700   2.658358   4.341342
    24  S    2.542129   2.439721   4.263822   4.137445   5.120151
    25  C    3.955208   4.450782   2.675676   4.110426   1.425163
    26  N    5.029770   5.597745   3.642685   5.237162   2.586817
    27  C    4.436049   3.971317   4.106384   2.674416   2.424897
    28  N    5.583831   5.047859   5.232040   3.642352   3.504263
    29  C    2.517432   3.674472   3.286888   5.309014   4.778168
    30  N    3.607292   4.826214   4.047461   6.425950   5.618639
                   21         22         23         24         25
    21  C    0.000000
    22  C    4.384939   0.000000
    23  N    3.909794   2.494036   0.000000
    24  S    5.076167   1.733444   1.664607   0.000000
    25  C    2.428007   5.116215   5.699860   6.371958   0.000000
    26  N    3.509330   6.107712   6.831389   7.434461   1.162408
    27  C    1.426163   5.736923   5.009263   6.301738   2.836178
    28  N    2.587713   6.864751   5.995430   7.349618   3.609722
    29  C    5.449573   1.416040   3.876636   2.767765   5.646781
    30  N    6.435818   2.578302   5.022796   3.797715   6.306769
                   26         27         28         29         30
    26  N    0.000000
    27  C    3.613393   0.000000
    28  N    4.122555   1.162293   0.000000
    29  C    6.480188   6.800997   7.931563   0.000000
    30  N    7.006418   7.769948   8.891861   1.162367   0.000000
 Symmetry turned off by external request.
 Framework group  C1[X(C16N8S6)]
 Deg. of freedom    84
 Rotational constants (GHZ):      0.1449677      0.0879640      0.0809425
   714 basis functions,  1518 primitive gaussians,   774 cartesian basis functions
   124 alpha electrons      124 beta electrons
       nuclear repulsion energy      3682.8563554989 Hartrees.
 IMHF & INEx in M05                  599485                  400514
 NAtoms=   30 NActive=   30 NUniq=   30 SFac= 1.00D+00 NAtFMM=   60 NAOKFM=F Big=F
 PrsmSu:  requested number of processors reduced to:  25 ShMem   1 Linda.
 ExpMin= 3.99D-02 ExpMax= 1.11D+05 ExpMxC= 1.07D+03 IAcc=3 IRadAn=         5 AccDes= 0.00D+00
 Harris functional with IExCor= 1009 and IRadAn=       5 diagonalized for initial guess.
 HarFok:  IExCor= 1009 AccDes= 0.00D+00 IRadAn=         5 IDoV= 1 UseB2=F ITyADJ=14
 ICtDFT=  3500011 ScaDFX=  1.000000  1.000000  1.000000  1.000000
 FoFCou: FMM=F IPFlag=           0 FMFlag=      100000 FMFlg1=           0
         NFxFlg=           0 DoJE=T BraDBF=F KetDBF=T FulRan=T
         wScrn=  0.000000 ICntrl=     500 IOpCl=  0 I1Cent=   200000004 NGrid=           0
         NMat0=    1 NMatS0=      1 NMatT0=    0 NMatD0=    1 NMtDS0=    0 NMtDT0=    0
 Symmetry not used in FoFCou.
 Restarting incremental Fock formation.
 SCF Done:  E(RM05) =  -3449.44881144     A.U. after   24 cycles
            NFock= 24  Conv=0.70D-08     -V/T= 2.0059

 **********************************************************************

            Population analysis using the SCF density.

 **********************************************************************

 Alpha  occ. eigenvalues --  -90.57162 -90.55983 -90.54499 -90.53841 -90.53600
 Alpha  occ. eigenvalues --  -90.53428 -15.09447 -15.07690 -15.05594 -15.05551
 Alpha  occ. eigenvalues --  -15.05270 -15.05208 -15.05193 -15.05100 -10.90646
 Alpha  occ. eigenvalues --  -10.90505 -10.90466 -10.90124 -10.90007 -10.89428
 Alpha  occ. eigenvalues --  -10.89340 -10.88422 -10.88311 -10.87139 -10.85749
 Alpha  occ. eigenvalues --  -10.84960 -10.84862 -10.84732 -10.84582 -10.84433
 Alpha  occ. eigenvalues --   -8.58247  -8.57087  -8.55879  -8.55261  -8.54990
 Alpha  occ. eigenvalues --   -8.54933  -6.40783  -6.40431  -6.40124  -6.39623
 Alpha  occ. eigenvalues --   -6.39260  -6.38944  -6.38441  -6.38127  -6.37815
 Alpha  occ. eigenvalues --   -6.37669  -6.37551  -6.37505  -6.37483  -6.37237
 Alpha  occ. eigenvalues --   -6.37173  -6.37044  -6.36781  -6.36715  -1.21379
 Alpha  occ. eigenvalues --   -1.20882  -1.13526  -1.13472  -1.13001  -1.11944
 Alpha  occ. eigenvalues --   -1.11898  -1.11529  -1.08338  -1.07767  -1.04670
 Alpha  occ. eigenvalues --   -1.03764  -0.99571  -0.98978  -0.98109  -0.97434
 Alpha  occ. eigenvalues --   -0.88756  -0.88104  -0.85375  -0.84637  -0.83061
 Alpha  occ. eigenvalues --   -0.82236  -0.74371  -0.73880  -0.72067  -0.71487
 Alpha  occ. eigenvalues --   -0.68723  -0.68162  -0.65422  -0.64796  -0.61022
 Alpha  occ. eigenvalues --   -0.59610  -0.58067  -0.57942  -0.56285  -0.56058
 Alpha  occ. eigenvalues --   -0.54921  -0.54432  -0.53842  -0.52998  -0.52561
 Alpha  occ. eigenvalues --   -0.52374  -0.52214  -0.52075  -0.51921  -0.51525
 Alpha  occ. eigenvalues --   -0.50918  -0.50488  -0.49995  -0.48899  -0.48648
 Alpha  occ. eigenvalues --   -0.48403  -0.47965  -0.46743  -0.46678  -0.46346
 Alpha  occ. eigenvalues --   -0.46252  -0.46069  -0.45833  -0.45056  -0.44716
 Alpha  occ. eigenvalues --   -0.43992  -0.43413  -0.41027  -0.40033  -0.39523
 Alpha  occ. eigenvalues --   -0.38279  -0.36466  -0.33816  -0.33091
 Alpha virt. eigenvalues --   -0.10116  -0.09684  -0.09075  -0.08060  -0.02795
 Alpha virt. eigenvalues --   -0.02220  -0.02101  -0.01482  -0.01060  -0.00982
 Alpha virt. eigenvalues --   -0.00598  -0.00219  -0.00008   0.00138   0.00896
 Alpha virt. eigenvalues --    0.01375   0.01631   0.01742   0.01893   0.02131
 Alpha virt. eigenvalues --    0.02566   0.02697   0.02804   0.03073   0.03485
 Alpha virt. eigenvalues --    0.03563   0.03896   0.04408   0.04853   0.05186
 Alpha virt. eigenvalues --    0.05290   0.05533   0.05913   0.06072   0.06113
 Alpha virt. eigenvalues --    0.06479   0.06685   0.06864   0.06950   0.07060
 Alpha virt. eigenvalues --    0.07615   0.07881   0.07889   0.08251   0.08501
 Alpha virt. eigenvalues --    0.08716   0.09283   0.09426   0.09529   0.09953
 Alpha virt. eigenvalues --    0.10056   0.10280   0.10336   0.10691   0.10729
 Alpha virt. eigenvalues --    0.11018   0.11124   0.11527   0.11706   0.12246
 Alpha virt. eigenvalues --    0.12357   0.12597   0.12759   0.13031   0.13159
 Alpha virt. eigenvalues --    0.13391   0.13878   0.14037   0.14315   0.14534
 Alpha virt. eigenvalues --    0.14864   0.14891   0.15107   0.15437   0.15479
 Alpha virt. eigenvalues --    0.15602   0.15789   0.16378   0.16466   0.16631
 Alpha virt. eigenvalues --    0.16722   0.16908   0.17047   0.17530   0.17602
 Alpha virt. eigenvalues --    0.18003   0.18566   0.18716   0.18793   0.19102
 Alpha virt. eigenvalues --    0.19302   0.19448   0.19718   0.19908   0.20126
 Alpha virt. eigenvalues --    0.20516   0.20620   0.20867   0.20946   0.21332
 Alpha virt. eigenvalues --    0.21808   0.21962   0.22343   0.22530   0.22595
 Alpha virt. eigenvalues --    0.22672   0.22851   0.23024   0.23571   0.23631
 Alpha virt. eigenvalues --    0.23655   0.23940   0.24203   0.24346   0.24509
 Alpha virt. eigenvalues --    0.24767   0.24893   0.25161   0.25235   0.25508
 Alpha virt. eigenvalues --    0.25631   0.25724   0.25911   0.26064   0.26463
 Alpha virt. eigenvalues --    0.26708   0.26929   0.27319   0.27383   0.27506
 Alpha virt. eigenvalues --    0.28100   0.28200   0.28362   0.28519   0.29122
 Alpha virt. eigenvalues --    0.29235   0.29336   0.29531   0.29741   0.30193
 Alpha virt. eigenvalues --    0.30250   0.30456   0.30780   0.31059   0.31445
 Alpha virt. eigenvalues --    0.31789   0.32405   0.32641   0.33099   0.33336
 Alpha virt. eigenvalues --    0.33617   0.34153   0.34440   0.34963   0.35103
 Alpha virt. eigenvalues --    0.35395   0.35795   0.35906   0.35988   0.36675
 Alpha virt. eigenvalues --    0.37201   0.37542   0.37812   0.38140   0.38491
 Alpha virt. eigenvalues --    0.38812   0.38942   0.39511   0.39934   0.40334
 Alpha virt. eigenvalues --    0.40578   0.40945   0.41510   0.41850   0.42340
 Alpha virt. eigenvalues --    0.42701   0.42931   0.43523   0.43975   0.44123
 Alpha virt. eigenvalues --    0.44804   0.45524   0.45576   0.45959   0.46598
 Alpha virt. eigenvalues --    0.46984   0.47296   0.47604   0.48196   0.48273
 Alpha virt. eigenvalues --    0.49581   0.50157   0.50672   0.51060   0.51525
 Alpha virt. eigenvalues --    0.52116   0.52365   0.52616   0.53100   0.53376
 Alpha virt. eigenvalues --    0.53757   0.54348   0.54642   0.54883   0.55113
 Alpha virt. eigenvalues --    0.55517   0.55579   0.55960   0.56118   0.56486
 Alpha virt. eigenvalues --    0.56669   0.56883   0.57031   0.57399   0.57889
 Alpha virt. eigenvalues --    0.58246   0.58525   0.58872   0.59283   0.59570
 Alpha virt. eigenvalues --    0.59893   0.60292   0.60614   0.60708   0.61165
 Alpha virt. eigenvalues --    0.61423   0.61821   0.62024   0.62427   0.62693
 Alpha virt. eigenvalues --    0.62811   0.63021   0.63294   0.63418   0.63591
 Alpha virt. eigenvalues --    0.63901   0.64449   0.64834   0.65716   0.65970
 Alpha virt. eigenvalues --    0.66355   0.66455   0.66831   0.67248   0.67510
 Alpha virt. eigenvalues --    0.68204   0.68704   0.68853   0.69105   0.69901
 Alpha virt. eigenvalues --    0.70002   0.70457   0.70795   0.71172   0.72154
 Alpha virt. eigenvalues --    0.72760   0.73115   0.73514   0.73886   0.73958
 Alpha virt. eigenvalues --    0.74147   0.74673   0.75239   0.75837   0.75960
 Alpha virt. eigenvalues --    0.76245   0.76789   0.77054   0.77196   0.77835
 Alpha virt. eigenvalues --    0.78254   0.78432   0.78791   0.79156   0.79423
 Alpha virt. eigenvalues --    0.79643   0.79830   0.80732   0.81027   0.81108
 Alpha virt. eigenvalues --    0.81523   0.81826   0.82156   0.82472   0.82703
 Alpha virt. eigenvalues --    0.83212   0.83776   0.84102   0.84344   0.84678
 Alpha virt. eigenvalues --    0.84784   0.85526   0.85731   0.85958   0.86185
 Alpha virt. eigenvalues --    0.86636   0.87025   0.87270   0.87520   0.88167
 Alpha virt. eigenvalues --    0.88298   0.88937   0.89121   0.89437   0.89597
 Alpha virt. eigenvalues --    0.90168   0.90242   0.90513   0.90976   0.91234
 Alpha virt. eigenvalues --    0.91423   0.91896   0.92076   0.92834   0.93002
 Alpha virt. eigenvalues --    0.93246   0.93453   0.93595   0.94057   0.94396
 Alpha virt. eigenvalues --    0.94590   0.94898   0.95522   0.96272   0.97031
 Alpha virt. eigenvalues --    0.97424   0.97916   0.98207   0.98574   0.98779
 Alpha virt. eigenvalues --    0.99613   0.99897   1.00444   1.00862   1.01600
 Alpha virt. eigenvalues --    1.01817   1.02604   1.03011   1.03310   1.04041
 Alpha virt. eigenvalues --    1.04605   1.04964   1.05507   1.05936   1.06380
 Alpha virt. eigenvalues --    1.07469   1.08217   1.08576   1.08989   1.09381
 Alpha virt. eigenvalues --    1.09529   1.10291   1.10561   1.11079   1.11789
 Alpha virt. eigenvalues --    1.12161   1.12914   1.13303   1.13552   1.14443
 Alpha virt. eigenvalues --    1.14760   1.15235   1.15431   1.15776   1.16435
 Alpha virt. eigenvalues --    1.16621   1.17532   1.18169   1.18573   1.19779
 Alpha virt. eigenvalues --    1.19908   1.20482   1.21064   1.21489   1.22584
 Alpha virt. eigenvalues --    1.23050   1.23423   1.23960   1.24307   1.24655
 Alpha virt. eigenvalues --    1.25564   1.25841   1.27125   1.27183   1.28250
 Alpha virt. eigenvalues --    1.29003   1.29553   1.30245   1.30595   1.31192
 Alpha virt. eigenvalues --    1.31327   1.32567   1.33442   1.33716   1.34033
 Alpha virt. eigenvalues --    1.34997   1.35854   1.37030   1.37690   1.39059
 Alpha virt. eigenvalues --    1.40786   1.41492   1.41915   1.42121   1.42939
 Alpha virt. eigenvalues --    1.43656   1.44323   1.44673   1.45817   1.46089
 Alpha virt. eigenvalues --    1.47115   1.47407   1.47732   1.47868   1.48466
 Alpha virt. eigenvalues --    1.48996   1.50072   1.50165   1.50566   1.50768
 Alpha virt. eigenvalues --    1.51346   1.51751   1.52426   1.52704   1.53393
 Alpha virt. eigenvalues --    1.54123   1.54914   1.55193   1.55524   1.55961
 Alpha virt. eigenvalues --    1.56124   1.57162   1.57667   1.57726   1.58041
 Alpha virt. eigenvalues --    1.58400   1.58447   1.59418   1.59628   1.60275
 Alpha virt. eigenvalues --    1.60568   1.61415   1.61767   1.62458   1.62955
 Alpha virt. eigenvalues --    1.63389   1.64153   1.64635   1.65330   1.66035
 Alpha virt. eigenvalues --    1.66120   1.67059   1.67435   1.67880   1.68297
 Alpha virt. eigenvalues --    1.68569   1.69473   1.69774   1.70664   1.71115
 Alpha virt. eigenvalues --    1.71351   1.72119   1.73197   1.73453   1.75065
 Alpha virt. eigenvalues --    1.75664   1.76363   1.77085   1.78468   1.79164
 Alpha virt. eigenvalues --    1.79252   1.79812   1.80370   1.80531   1.81973
 Alpha virt. eigenvalues --    1.82376   1.83783   1.84875   1.85335   1.86752
 Alpha virt. eigenvalues --    1.86954   1.88936   1.89283   1.90483   1.90678
 Alpha virt. eigenvalues --    1.91378   1.91614   1.92338   1.92758   1.93183
 Alpha virt. eigenvalues --    1.95623   1.96273   1.97563   1.98065   1.99007
 Alpha virt. eigenvalues --    1.99870   2.01275   2.01583   2.02365   2.03478
 Alpha virt. eigenvalues --    2.04580   2.06629   2.07915   2.08655   2.09543
 Alpha virt. eigenvalues --    2.10615   2.11835   2.12452   2.13054   2.13312
 Alpha virt. eigenvalues --    2.14865   2.17102   2.19203   2.20500   2.23392
 Alpha virt. eigenvalues --    2.24809   2.25871   2.27364   2.28875   2.29703
 Alpha virt. eigenvalues --    2.31015   2.31913   2.34013   2.37057   2.37376
 Alpha virt. eigenvalues --    2.37911   2.38240   2.38606   2.38745   2.39434
 Alpha virt. eigenvalues --    2.39948   2.40152   2.40573   2.40730   2.41246
 Alpha virt. eigenvalues --    2.41928   2.43637   2.44128   2.44867   2.45601
 Alpha virt. eigenvalues --    2.46565   2.46639   2.48734   2.49624   2.54813
 Alpha virt. eigenvalues --    2.56999   2.57597   2.60634   2.62280   2.64430
 Alpha virt. eigenvalues --    2.65336   2.67196   2.68576   2.69203   2.69609
 Alpha virt. eigenvalues --    2.73587   2.73859   2.75852   2.77292   2.78506
 Alpha virt. eigenvalues --    2.79347   2.81964   2.82727   2.83934   2.85979
 Alpha virt. eigenvalues --    2.89121   2.95462   2.96608   2.99842   3.01497
 Alpha virt. eigenvalues --    3.06635   3.11826   3.12286   3.14635   3.16808
 Alpha virt. eigenvalues --    3.17653   3.18341   3.19234   3.22229   3.24709
 Alpha virt. eigenvalues --    3.25480   3.27057   3.29625   3.32505   3.41754
 Alpha virt. eigenvalues --    3.52964   3.69357   3.70913   3.85978   3.90236
          Condensed to atoms (all electrons):
 Mulliken charges:
               1
     1  C    0.599597
     2  C   -0.146064
     3  S    0.313430
     4  S    0.909627
     5  C    1.261234
     6  C    1.099905
     7  C    0.986010
     8  N   -1.130834
     9  S    0.591109
    10  C   -1.515721
    11  N   -0.103702
    12  C   -1.400887
    13  N   -0.164005
    14  C   -1.290440
    15  N   -0.099727
    16  C    0.713236
    17  C   -0.067349
    18  S    0.314193
    19  S    0.249583
    20  C    1.232190
    21  C    1.125914
    22  C    1.064856
    23  N   -1.146793
    24  S    0.618197
    25  C   -1.208672
    26  N   -0.128870
    27  C   -1.243633
    28  N   -0.132612
    29  C   -1.211296
    30  N   -0.088477
 Sum of Mulliken charges =  -0.00000
 Mulliken charges with hydrogens summed into heavy atoms:
               1
     1  C    0.599597
     2  C   -0.146064
     3  S    0.313430
     4  S    0.909627
     5  C    1.261234
     6  C    1.099905
     7  C    0.986010
     8  N   -1.130834
     9  S    0.591109
    10  C   -1.515721
    11  N   -0.103702
    12  C   -1.400887
    13  N   -0.164005
    14  C   -1.290440
    15  N   -0.099727
    16  C    0.713236
    17  C   -0.067349
    18  S    0.314193
    19  S    0.249583
    20  C    1.232190
    21  C    1.125914
    22  C    1.064856
    23  N   -1.146793
    24  S    0.618197
    25  C   -1.208672
    26  N   -0.128870
    27  C   -1.243633
    28  N   -0.132612
    29  C   -1.211296
    30  N   -0.088477
 Electronic spatial extent (au):  <R**2>=          20660.8732
 Charge=              0.0000 electrons
 Dipole moment (field-independent basis, Debye):
    X=              3.6545    Y=             -5.5302    Z=              3.8057  Tot=              7.6434

 Test job not archived.
 1\1\GINC-CHIMERA-NODE29\SP\RM05\Gen\C16N8S6\CONNORNM\19-Jan-2019\0\\#T
  M05/Gen test Massage SCF=(fermi,maxcyc=60)\\M05 opt\\0,1\C,0,-0.65657
 662,-0.78102489,0.00402174\C,0,0.40435846,-0.9206488,0.9425038\S,0,-1.
 34878234,0.74649186,-0.52139284\S,0,1.22941825,0.44073279,1.71742627\C
 ,0,0.08143943,1.7917618,-0.4439428\C,0,1.10153795,1.6687379,0.44594943
 \C,0,-1.10688525,-2.02912382,-0.37647057\N,0,0.76235986,-2.13792314,1.
 27104329\S,0,-0.20130702,-3.23730165,0.47503454\C,0,0.05613507,2.84643
 416,-1.40212627\N,0,-0.02079127,3.70294338,-2.1842179\C,0,2.18630527,2
 .59457093,0.45336483\N,0,3.07443512,3.34181853,0.51478566\C,0,-2.15025
 898,-2.34997491,-1.27846519\N,0,-3.00959147,-2.63157989,-2.00876802\C,
 0,0.53530919,-0.82672291,5.07695941\C,0,1.33106375,0.21715299,5.627345
 13\S,0,-1.14012398,-1.15107023,5.49676788\S,0,0.74398819,1.39161686,6.
 81501733\C,0,-1.71301186,0.49371637,5.82933153\C,0,-0.96372039,1.49948
 402,6.35339047\C,0,1.30003619,-1.58918736,4.21722469\N,0,2.58423765,0.
 28329677,5.24913859\S,0,2.91600604,-0.96228081,4.19586601\C,0,-3.09504
 485,0.67546786,5.53261471\N,0,-4.22973901,0.76828398,5.29799297\C,0,-1
 .53602343,2.77679466,6.62704846\N,0,-1.96696731,3.82294434,6.89310178\
 C,0,0.91141852,-2.72691566,3.46908094\N,0,0.61236641,-3.66752502,2.855
 14464\\Version=AS64L-G09RevD.01\HF=-3449.4488114\RMSD=7.041e-09\Dipole
 =1.4377946,-2.1757404,1.4972887\Quadrupole=-5.224374,-10.3993107,15.62
 36848,-5.3991018,10.4664979,-11.3235099\PG=C01 [X(C16N8S6)]\\@


 Everything starts as somebody's daydream.
                           -- Larry Niven
 Job cpu time:       0 days 16 hours 44 minutes 38.0 seconds.
 File lengths (MBytes):  RWF=    225 Int=      0 D2E=      0 Chk=     19 Scr=      1
 Normal termination of Gaussian 09 at Sat Jan 19 11:29:00 2019.
