 Entering Gaussian System, Link 0=/data/szalewicgrp/connornm/opt/Gaussian/g09-M05-par/g09/g09
 AtFile(1): blind-aug.gbs
 Initial command:
 /data/szalewicgrp/connornm/opt/Gaussian/g09-M05-par/g09/l1.exe "/scratch/local/Gau-25709.inp" -scrdir="/scratch/local/"
 Entering Link 1 = /data/szalewicgrp/connornm/opt/Gaussian/g09-M05-par/g09/l1.exe PID=     25710.
  
 Copyright (c) 1988,1990,1992,1993,1995,1998,2003,2009,2013,
            Gaussian, Inc.  All Rights Reserved.
  
 This is part of the Gaussian(R) 09 program.  It is based on
 the Gaussian(R) 03 system (copyright 2003, Gaussian, Inc.),
 the Gaussian(R) 98 system (copyright 1998, Gaussian, Inc.),
 the Gaussian(R) 94 system (copyright 1995, Gaussian, Inc.),
 the Gaussian 92(TM) system (copyright 1992, Gaussian, Inc.),
 the Gaussian 90(TM) system (copyright 1990, Gaussian, Inc.),
 the Gaussian 88(TM) system (copyright 1988, Gaussian, Inc.),
 the Gaussian 86(TM) system (copyright 1986, Carnegie Mellon
 University), and the Gaussian 82(TM) system (copyright 1983,
 Carnegie Mellon University). Gaussian is a federally registered
 trademark of Gaussian, Inc.
  
 This software contains proprietary and confidential information,
 including trade secrets, belonging to Gaussian, Inc.
  
 This software is provided under written license and may be
 used, copied, transmitted, or stored only in accord with that
 written license.
  
 The following legend is applicable only to US Government
 contracts under FAR:
  
                    RESTRICTED RIGHTS LEGEND
  
 Use, reproduction and disclosure by the US Government is
 subject to restrictions as set forth in subparagraphs (a)
 and (c) of the Commercial Computer Software - Restricted
 Rights clause in FAR 52.227-19.
  
 Gaussian, Inc.
 340 Quinnipiac St., Bldg. 40, Wallingford CT 06492
  
  
 ---------------------------------------------------------------
 Warning -- This program may not be used in any manner that
 competes with the business of Gaussian, Inc. or will provide
 assistance to any competitor of Gaussian, Inc.  The licensee
 of this program is prohibited from giving any competitor of
 Gaussian, Inc. access to this program.  By using this program,
 the user acknowledges that Gaussian, Inc. is engaged in the
 business of creating and licensing software in the field of
 computational chemistry and represents and warrants to the
 licensee that it is not a competitor of Gaussian, Inc. and that
 it will not use this program in any manner prohibited above.
 ---------------------------------------------------------------
  

 Cite this work as:
 Gaussian 09, Revision D.01,
 M. J. Frisch, G. W. Trucks, H. B. Schlegel, G. E. Scuseria, 
 M. A. Robb, J. R. Cheeseman, G. Scalmani, V. Barone, B. Mennucci, 
 G. A. Petersson, H. Nakatsuji, M. Caricato, X. Li, H. P. Hratchian, 
 A. F. Izmaylov, J. Bloino, G. Zheng, J. L. Sonnenberg, M. Hada, 
 M. Ehara, K. Toyota, R. Fukuda, J. Hasegawa, M. Ishida, T. Nakajima, 
 Y. Honda, O. Kitao, H. Nakai, T. Vreven, J. A. Montgomery, Jr., 
 J. E. Peralta, F. Ogliaro, M. Bearpark, J. J. Heyd, E. Brothers, 
 K. N. Kudin, V. N. Staroverov, T. Keith, R. Kobayashi, J. Normand, 
 K. Raghavachari, A. Rendell, J. C. Burant, S. S. Iyengar, J. Tomasi, 
 M. Cossi, N. Rega, J. M. Millam, M. Klene, J. E. Knox, J. B. Cross, 
 V. Bakken, C. Adamo, J. Jaramillo, R. Gomperts, R. E. Stratmann, 
 O. Yazyev, A. J. Austin, R. Cammi, C. Pomelli, J. W. Ochterski, 
 R. L. Martin, K. Morokuma, V. G. Zakrzewski, G. A. Voth, 
 P. Salvador, J. J. Dannenberg, S. Dapprich, A. D. Daniels, 
 O. Farkas, J. B. Foresman, J. V. Ortiz, J. Cioslowski, 
 and D. J. Fox, Gaussian, Inc., Wallingford CT, 2013.
 
 ******************************************
 Gaussian 09:  AS64L-G09RevD.01 24-Apr-2013
                19-Jan-2019 
 ******************************************
 %Chk=BLIND01706_mB
 %Mem=1GB
 %NProcShared=48
 Will use up to   48 processors via shared memory.
 ---------------------------------------------
 #T M05/Gen test Massage SCF=(fermi,maxcyc=60)
 ---------------------------------------------
 -------
 M05 opt
 -------
 Symbolic Z-matrix:
 Charge =  0 Multiplicity = 1
 6                     0.14665  -0.76537   4.92411 
 6                    -1.09872  -0.09697   4.75642 
 16                    1.62563  -0.01831   5.50982 
 16                   -1.36997   1.60866   5.14608 
 6                     0.95802   1.1802    6.63321 
 6                    -0.22963   1.82463   6.48548 
 6                     0.03498  -2.07075   4.48957 
 7                    -2.0906   -0.78823   4.25025 
 16                   -1.57373  -2.331     3.89867 
 6                     1.82304   1.46134   7.73038 
 7                     2.57213   1.67442   8.59331 
 6                    -0.65361   2.80944   7.42588 
 7                    -1.0252    3.63874   8.15052 
 6                     1.03024  -3.07776   4.46631 
 7                     1.83716  -3.91368   4.43123 
 
                    Distance matrix (angstroms):
                    1          2          3          4          5
     1  C    0.000000
     2  C    1.423315   0.000000
     3  S    1.757418   2.827694   0.000000
     4  S    2.825849   1.770477   3.428253   0.000000
     5  C    2.713774   3.063280   1.773167   2.795470   0.000000
     6  C    3.047557   2.727187   2.791121   1.772288   1.359281
     7  C    1.380327   2.291783   2.789903   3.992857   4.001979
     8  N    2.336642   1.310672   3.998700   2.658358   4.341342
     9  S    2.542129   2.439721   4.263822   4.137445   5.120151
    10  C    3.955208   4.450782   2.675676   4.110426   1.425163
    11  N    5.029770   5.597745   3.642685   5.237162   2.586817
    12  C    4.436049   3.971317   4.106384   2.674416   2.424897
    13  N    5.583831   5.047859   5.232040   3.642352   3.504263
    14  C    2.517432   3.674472   3.286888   5.309014   4.778168
    15  N    3.607292   4.826214   4.047461   6.425950   5.618639
                    6          7          8          9         10
     6  C    0.000000
     7  C    4.384939   0.000000
     8  N    3.909794   2.494036   0.000000
     9  S    5.076167   1.733444   1.664607   0.000000
    10  C    2.428007   5.116215   5.699860   6.371958   0.000000
    11  N    3.509330   6.107712   6.831389   7.434461   1.162408
    12  C    1.426163   5.736923   5.009263   6.301738   2.836178
    13  N    2.587713   6.864751   5.995430   7.349618   3.609722
    14  C    5.449573   1.416040   3.876636   2.767765   5.646781
    15  N    6.435818   2.578302   5.022796   3.797715   6.306769
                   11         12         13         14         15
    11  N    0.000000
    12  C    3.613393   0.000000
    13  N    4.122555   1.162293   0.000000
    14  C    6.480188   6.800997   7.931563   0.000000
    15  N    7.006418   7.769948   8.891861   1.162367   0.000000
 Symmetry turned off by external request.
 Framework group  C1[X(C8N4S3)]
 Deg. of freedom    39
 Rotational constants (GHZ):      0.7722167      0.3388923      0.2463240
   357 basis functions,   759 primitive gaussians,   387 cartesian basis functions
    62 alpha electrons       62 beta electrons
       nuclear repulsion energy      1166.1400397143 Hartrees.
 IMHF & INEx in M05                  599485                  400514
 NAtoms=   15 NActive=   15 NUniq=   15 SFac= 1.00D+00 NAtFMM=   60 NAOKFM=F Big=F
 PrsmSu:  requested number of processors reduced to:  34 ShMem   1 Linda.
 ExpMin= 3.99D-02 ExpMax= 1.11D+05 ExpMxC= 1.07D+03 IAcc=3 IRadAn=         5 AccDes= 0.00D+00
 Harris functional with IExCor= 1009 and IRadAn=       5 diagonalized for initial guess.
 HarFok:  IExCor= 1009 AccDes= 0.00D+00 IRadAn=         5 IDoV= 1 UseB2=F ITyADJ=14
 ICtDFT=  3500011 ScaDFX=  1.000000  1.000000  1.000000  1.000000
 FoFCou: FMM=F IPFlag=           0 FMFlag=      100000 FMFlg1=           0
         NFxFlg=           0 DoJE=T BraDBF=F KetDBF=T FulRan=T
         wScrn=  0.000000 ICntrl=     500 IOpCl=  0 I1Cent=   200000004 NGrid=           0
         NMat0=    1 NMatS0=      1 NMatT0=    0 NMatD0=    1 NMtDS0=    0 NMtDT0=    0
 Symmetry not used in FoFCou.
 SCF Done:  E(RM05) =  -1724.76146558     A.U. after   17 cycles
            NFock= 17  Conv=0.51D-08     -V/T= 2.0061

 **********************************************************************

            Population analysis using the SCF density.

 **********************************************************************

 Alpha  occ. eigenvalues --  -90.56430 -90.53636 -90.53182 -15.08622 -15.05417
 Alpha  occ. eigenvalues --  -15.04969 -15.04934 -10.89945 -10.89826 -10.89736
 Alpha  occ. eigenvalues --  -10.88752 -10.87414 -10.84947 -10.84331 -10.84310
 Alpha  occ. eigenvalues --   -8.57525  -8.55036  -8.54609  -6.40063  -6.39712
 Alpha  occ. eigenvalues --   -6.39400  -6.37598  -6.37283  -6.37163  -6.36853
 Alpha  occ. eigenvalues --   -6.36822  -6.36392  -1.20533  -1.12895  -1.12139
 Alpha  occ. eigenvalues --   -1.11337  -1.07643  -1.03801  -0.98824  -0.97396
 Alpha  occ. eigenvalues --   -0.88002  -0.84555  -0.82236  -0.73687  -0.71296
 Alpha  occ. eigenvalues --   -0.67838  -0.64612  -0.59530  -0.57258  -0.55386
 Alpha  occ. eigenvalues --   -0.53385  -0.52648  -0.52243  -0.51890  -0.50883
 Alpha  occ. eigenvalues --   -0.50387  -0.49356  -0.48215  -0.46805  -0.46074
 Alpha  occ. eigenvalues --   -0.45933  -0.45296  -0.43720  -0.43113  -0.39488
 Alpha  occ. eigenvalues --   -0.37627  -0.33120
 Alpha virt. eigenvalues --   -0.09329  -0.08269  -0.02099  -0.01262  -0.00507
 Alpha virt. eigenvalues --   -0.00361   0.00153   0.01255   0.02018   0.02228
 Alpha virt. eigenvalues --    0.02394   0.02956   0.03186   0.04002   0.04276
 Alpha virt. eigenvalues --    0.04488   0.05428   0.06005   0.06297   0.07069
 Alpha virt. eigenvalues --    0.07270   0.07525   0.07706   0.08289   0.08491
 Alpha virt. eigenvalues --    0.09374   0.10095   0.10393   0.10527   0.10809
 Alpha virt. eigenvalues --    0.11286   0.11390   0.11979   0.12526   0.13227
 Alpha virt. eigenvalues --    0.13486   0.13937   0.14456   0.15076   0.15193
 Alpha virt. eigenvalues --    0.15901   0.16270   0.16677   0.16813   0.17192
 Alpha virt. eigenvalues --    0.17358   0.17836   0.18618   0.19041   0.19562
 Alpha virt. eigenvalues --    0.19857   0.20240   0.20686   0.20942   0.21266
 Alpha virt. eigenvalues --    0.21873   0.22204   0.22584   0.22817   0.23614
 Alpha virt. eigenvalues --    0.23749   0.24110   0.24367   0.24701   0.25259
 Alpha virt. eigenvalues --    0.25697   0.25842   0.26225   0.26622   0.26750
 Alpha virt. eigenvalues --    0.27070   0.28335   0.29198   0.29665   0.30367
 Alpha virt. eigenvalues --    0.30712   0.32421   0.33452   0.34152   0.34710
 Alpha virt. eigenvalues --    0.34946   0.35472   0.36121   0.36936   0.37594
 Alpha virt. eigenvalues --    0.38152   0.39582   0.40728   0.41164   0.42048
 Alpha virt. eigenvalues --    0.42119   0.43484   0.44138   0.45739   0.45980
 Alpha virt. eigenvalues --    0.46959   0.48545   0.49573   0.50233   0.50590
 Alpha virt. eigenvalues --    0.51525   0.51859   0.53529   0.54168   0.54425
 Alpha virt. eigenvalues --    0.54700   0.55464   0.55735   0.55838   0.56452
 Alpha virt. eigenvalues --    0.57766   0.58138   0.58554   0.59216   0.60312
 Alpha virt. eigenvalues --    0.60550   0.61102   0.61588   0.62103   0.62707
 Alpha virt. eigenvalues --    0.63715   0.64717   0.64955   0.66007   0.66556
 Alpha virt. eigenvalues --    0.67683   0.68193   0.68807   0.70108   0.70414
 Alpha virt. eigenvalues --    0.71050   0.72859   0.73469   0.73851   0.75371
 Alpha virt. eigenvalues --    0.75569   0.76455   0.77062   0.77546   0.77842
 Alpha virt. eigenvalues --    0.78245   0.79255   0.79759   0.79875   0.81106
 Alpha virt. eigenvalues --    0.81533   0.82544   0.83271   0.83956   0.84871
 Alpha virt. eigenvalues --    0.85699   0.85939   0.87121   0.87247   0.88404
 Alpha virt. eigenvalues --    0.88459   0.89344   0.89665   0.89831   0.90733
 Alpha virt. eigenvalues --    0.91171   0.91722   0.92829   0.93723   0.94365
 Alpha virt. eigenvalues --    0.95432   0.95563   0.97325   0.98741   0.99312
 Alpha virt. eigenvalues --    0.99843   1.01203   1.02846   1.03574   1.04751
 Alpha virt. eigenvalues --    1.05758   1.06738   1.08037   1.08540   1.09633
 Alpha virt. eigenvalues --    1.10231   1.11400   1.13194   1.13608   1.14403
 Alpha virt. eigenvalues --    1.15321   1.17103   1.18344   1.20285   1.20628
 Alpha virt. eigenvalues --    1.21607   1.22698   1.23935   1.24221   1.26558
 Alpha virt. eigenvalues --    1.27342   1.29757   1.30251   1.32267   1.34129
 Alpha virt. eigenvalues --    1.37312   1.40080   1.40257   1.41567   1.42727
 Alpha virt. eigenvalues --    1.43614   1.45023   1.46461   1.47272   1.49372
 Alpha virt. eigenvalues --    1.49820   1.50474   1.51643   1.51870   1.52332
 Alpha virt. eigenvalues --    1.53715   1.54193   1.55431   1.56137   1.56452
 Alpha virt. eigenvalues --    1.56790   1.58489   1.59724   1.60389   1.60519
 Alpha virt. eigenvalues --    1.62131   1.63282   1.64919   1.66027   1.67544
 Alpha virt. eigenvalues --    1.68613   1.69176   1.70470   1.71324   1.74151
 Alpha virt. eigenvalues --    1.76828   1.77075   1.79017   1.79378   1.81042
 Alpha virt. eigenvalues --    1.82955   1.85922   1.88150   1.89705   1.90608
 Alpha virt. eigenvalues --    1.91368   1.94485   1.95004   1.97391   2.00539
 Alpha virt. eigenvalues --    2.00823   2.05448   2.07037   2.08351   2.08473
 Alpha virt. eigenvalues --    2.10896   2.13938   2.18606   2.20233   2.24595
 Alpha virt. eigenvalues --    2.27643   2.30687   2.37024   2.37401   2.38000
 Alpha virt. eigenvalues --    2.38279   2.39369   2.39930   2.40471   2.42149
 Alpha virt. eigenvalues --    2.42559   2.43755   2.45056   2.51014   2.54995
 Alpha virt. eigenvalues --    2.61156   2.64126   2.68330   2.71897   2.73263
 Alpha virt. eigenvalues --    2.76308   2.78780   2.81841   2.94680   2.99731
 Alpha virt. eigenvalues --    3.01877   3.09943   3.11452   3.15939   3.17850
 Alpha virt. eigenvalues --    3.24293   3.27130   3.35294   3.59308   3.74890
          Condensed to atoms (all electrons):
 Mulliken charges:
               1
     1  C    0.620469
     2  C   -0.108968
     3  S    0.374465
     4  S    0.296385
     5  C    1.039545
     6  C    1.131641
     7  C    0.786489
     8  N   -1.083357
     9  S    0.557575
    10  C   -1.130513
    11  N   -0.168060
    12  C   -1.099496
    13  N   -0.180465
    14  C   -0.852759
    15  N   -0.182952
 Sum of Mulliken charges =  -0.00000
 Mulliken charges with hydrogens summed into heavy atoms:
               1
     1  C    0.620469
     2  C   -0.108968
     3  S    0.374465
     4  S    0.296385
     5  C    1.039545
     6  C    1.131641
     7  C    0.786489
     8  N   -1.083357
     9  S    0.557575
    10  C   -1.130513
    11  N   -0.168060
    12  C   -1.099496
    13  N   -0.180465
    14  C   -0.852759
    15  N   -0.182952
 Electronic spatial extent (au):  <R**2>=          17849.5961
 Charge=             -0.0000 electrons
 Dipole moment (field-independent basis, Debye):
    X=             -2.1472    Y=             -1.4439    Z=             -3.9059  Tot=              4.6852

 Test job not archived.
 1\1\GINC-CHIMERA-NODE24\SP\RM05\Gen\C8N4S3\CONNORNM\19-Jan-2019\0\\#T 
 M05/Gen test Massage SCF=(fermi,maxcyc=60)\\M05 opt\\0,1\C,0,0.1466514
 9,-0.76537262,4.92410973\C,0,-1.0987191,-0.09697306,4.75641716\S,0,1.6
 2562595,-0.01831256,5.50981651\S,0,-1.36996886,1.60865642,5.14608367\C
 ,0,0.9580223,1.18019698,6.63320528\C,0,-0.22963298,1.82463257,6.485483
 41\C,0,0.03497834,-2.07074859,4.48956871\N,0,-2.09059837,-0.78822517,4
 .25024915\S,0,-1.57372735,-2.3309996,3.89866941\C,0,1.82303907,1.46133
 578,7.73038194\N,0,2.57213479,1.67442128,8.59330904\C,0,-0.65361362,2.
 80943684,7.42587848\N,0,-1.0252039,3.6387401,8.15051832\C,0,1.03024246
 ,-3.07776229,4.46630531\N,0,1.83715971,-3.91367517,4.43123216\\Version
 =AS64L-G09RevD.01\HF=-1724.7614656\RMSD=5.129e-09\Dipole=-0.8447635,-0
 .5680843,-1.5366813\Quadrupole=12.8481745,7.871102,-20.7192765,6.93843
 8,-10.793652,-14.9556434\PG=C01 [X(C8N4S3)]\\@


 HE THAT IS UNAWARE OF HIS IGNORANCE WILL BE MISLED BY HIS KNOWLEDGE.

                                        -- WHATLEY
 Job cpu time:       0 days  1 hours 38 minutes 36.4 seconds.
 File lengths (MBytes):  RWF=     58 Int=      0 D2E=      0 Chk=      6 Scr=      1
 Normal termination of Gaussian 09 at Sat Jan 19 10:59:08 2019.
