 Entering Gaussian System, Link 0=/data/szalewicgrp/connornm/opt/Gaussian/g09-M05-par/g09/g09
 AtFile(1): blind-aug.gbs
 Initial command:
 /data/szalewicgrp/connornm/opt/Gaussian/g09-M05-par/g09/l1.exe "/scratch/local/Gau-3754.inp" -scrdir="/scratch/local/"
 Entering Link 1 = /data/szalewicgrp/connornm/opt/Gaussian/g09-M05-par/g09/l1.exe PID=      3755.
  
 Copyright (c) 1988,1990,1992,1993,1995,1998,2003,2009,2013,
            Gaussian, Inc.  All Rights Reserved.
  
 This is part of the Gaussian(R) 09 program.  It is based on
 the Gaussian(R) 03 system (copyright 2003, Gaussian, Inc.),
 the Gaussian(R) 98 system (copyright 1998, Gaussian, Inc.),
 the Gaussian(R) 94 system (copyright 1995, Gaussian, Inc.),
 the Gaussian 92(TM) system (copyright 1992, Gaussian, Inc.),
 the Gaussian 90(TM) system (copyright 1990, Gaussian, Inc.),
 the Gaussian 88(TM) system (copyright 1988, Gaussian, Inc.),
 the Gaussian 86(TM) system (copyright 1986, Carnegie Mellon
 University), and the Gaussian 82(TM) system (copyright 1983,
 Carnegie Mellon University). Gaussian is a federally registered
 trademark of Gaussian, Inc.
  
 This software contains proprietary and confidential information,
 including trade secrets, belonging to Gaussian, Inc.
  
 This software is provided under written license and may be
 used, copied, transmitted, or stored only in accord with that
 written license.
  
 The following legend is applicable only to US Government
 contracts under FAR:
  
                    RESTRICTED RIGHTS LEGEND
  
 Use, reproduction and disclosure by the US Government is
 subject to restrictions as set forth in subparagraphs (a)
 and (c) of the Commercial Computer Software - Restricted
 Rights clause in FAR 52.227-19.
  
 Gaussian, Inc.
 340 Quinnipiac St., Bldg. 40, Wallingford CT 06492
  
  
 ---------------------------------------------------------------
 Warning -- This program may not be used in any manner that
 competes with the business of Gaussian, Inc. or will provide
 assistance to any competitor of Gaussian, Inc.  The licensee
 of this program is prohibited from giving any competitor of
 Gaussian, Inc. access to this program.  By using this program,
 the user acknowledges that Gaussian, Inc. is engaged in the
 business of creating and licensing software in the field of
 computational chemistry and represents and warrants to the
 licensee that it is not a competitor of Gaussian, Inc. and that
 it will not use this program in any manner prohibited above.
 ---------------------------------------------------------------
  

 Cite this work as:
 Gaussian 09, Revision D.01,
 M. J. Frisch, G. W. Trucks, H. B. Schlegel, G. E. Scuseria, 
 M. A. Robb, J. R. Cheeseman, G. Scalmani, V. Barone, B. Mennucci, 
 G. A. Petersson, H. Nakatsuji, M. Caricato, X. Li, H. P. Hratchian, 
 A. F. Izmaylov, J. Bloino, G. Zheng, J. L. Sonnenberg, M. Hada, 
 M. Ehara, K. Toyota, R. Fukuda, J. Hasegawa, M. Ishida, T. Nakajima, 
 Y. Honda, O. Kitao, H. Nakai, T. Vreven, J. A. Montgomery, Jr., 
 J. E. Peralta, F. Ogliaro, M. Bearpark, J. J. Heyd, E. Brothers, 
 K. N. Kudin, V. N. Staroverov, T. Keith, R. Kobayashi, J. Normand, 
 K. Raghavachari, A. Rendell, J. C. Burant, S. S. Iyengar, J. Tomasi, 
 M. Cossi, N. Rega, J. M. Millam, M. Klene, J. E. Knox, J. B. Cross, 
 V. Bakken, C. Adamo, J. Jaramillo, R. Gomperts, R. E. Stratmann, 
 O. Yazyev, A. J. Austin, R. Cammi, C. Pomelli, J. W. Ochterski, 
 R. L. Martin, K. Morokuma, V. G. Zakrzewski, G. A. Voth, 
 P. Salvador, J. J. Dannenberg, S. Dapprich, A. D. Daniels, 
 O. Farkas, J. B. Foresman, J. V. Ortiz, J. Cioslowski, 
 and D. J. Fox, Gaussian, Inc., Wallingford CT, 2013.
 
 ******************************************
 Gaussian 09:  AS64L-G09RevD.01 24-Apr-2013
                19-Jan-2019 
 ******************************************
 %Chk=BLIND00574_mA
 %Mem=1GB
 %NProcShared=48
 Will use up to   48 processors via shared memory.
 ---------------------------------------------
 #T M05/Gen test Massage SCF=(fermi,maxcyc=60)
 ---------------------------------------------
 -------
 M05 opt
 -------
 Symbolic Z-matrix:
 Charge =  0 Multiplicity = 1
 6                    -0.89354  -0.48218   0.10099 
 6                     0.21891  -1.23417   0.57299 
 16                   -1.0093    1.27137   0.11513 
 16                    1.69711  -0.51385   1.22925 
 6                     0.69074   1.70837  -0.13589 
 6                     1.76177   0.99901   0.30834 
 6                    -1.89612  -1.34056  -0.30312 
 7                     0.1185   -2.54071   0.54608 
 16                   -1.37927  -2.97364  -0.03717 
 6                     0.8546    2.94063  -0.83288 
 7                     0.93729   3.96133  -1.38289 
 6                     3.09247   1.46466   0.09304 
 7                     4.19174   1.82019  -0.03401 
 6                    -3.17227  -1.01796  -0.82517 
 7                    -4.2272   -0.77147  -1.24645 
 
                    Distance matrix (angstroms):
                    1          2          3          4          5
     1  C    0.000000
     2  C    1.423315   0.000000
     3  S    1.757418   2.827694   0.000000
     4  S    2.825849   1.770477   3.428253   0.000000
     5  C    2.713774   3.063280   1.773167   2.795470   0.000000
     6  C    3.047557   2.727187   2.791121   1.772288   1.359281
     7  C    1.380327   2.291783   2.789903   3.992857   4.001979
     8  N    2.336642   1.310672   3.998700   2.658358   4.341342
     9  S    2.542129   2.439721   4.263822   4.137445   5.120151
    10  C    3.955208   4.450782   2.675676   4.110426   1.425163
    11  N    5.029770   5.597745   3.642685   5.237162   2.586817
    12  C    4.436049   3.971317   4.106384   2.674416   2.424897
    13  N    5.583831   5.047859   5.232040   3.642352   3.504263
    14  C    2.517432   3.674472   3.286888   5.309014   4.778168
    15  N    3.607292   4.826214   4.047461   6.425950   5.618639
                    6          7          8          9         10
     6  C    0.000000
     7  C    4.384939   0.000000
     8  N    3.909794   2.494036   0.000000
     9  S    5.076167   1.733444   1.664607   0.000000
    10  C    2.428007   5.116215   5.699860   6.371958   0.000000
    11  N    3.509330   6.107712   6.831389   7.434461   1.162408
    12  C    1.426163   5.736923   5.009263   6.301738   2.836178
    13  N    2.587713   6.864751   5.995430   7.349618   3.609722
    14  C    5.449573   1.416040   3.876636   2.767765   5.646781
    15  N    6.435818   2.578302   5.022796   3.797715   6.306769
                   11         12         13         14         15
    11  N    0.000000
    12  C    3.613393   0.000000
    13  N    4.122555   1.162293   0.000000
    14  C    6.480188   6.800997   7.931563   0.000000
    15  N    7.006418   7.769948   8.891861   1.162367   0.000000
 Symmetry turned off by external request.
 Framework group  C1[X(C8N4S3)]
 Deg. of freedom    39
 Rotational constants (GHZ):      0.7722167      0.3388923      0.2463240
   357 basis functions,   759 primitive gaussians,   387 cartesian basis functions
    62 alpha electrons       62 beta electrons
       nuclear repulsion energy      1166.1400397040 Hartrees.
 IMHF & INEx in M05                  599485                  400514
 NAtoms=   15 NActive=   15 NUniq=   15 SFac= 1.00D+00 NAtFMM=   60 NAOKFM=F Big=F
 PrsmSu:  requested number of processors reduced to:  34 ShMem   1 Linda.
 ExpMin= 3.99D-02 ExpMax= 1.11D+05 ExpMxC= 1.07D+03 IAcc=3 IRadAn=         5 AccDes= 0.00D+00
 Harris functional with IExCor= 1009 and IRadAn=       5 diagonalized for initial guess.
 HarFok:  IExCor= 1009 AccDes= 0.00D+00 IRadAn=         5 IDoV= 1 UseB2=F ITyADJ=14
 ICtDFT=  3500011 ScaDFX=  1.000000  1.000000  1.000000  1.000000
 FoFCou: FMM=F IPFlag=           0 FMFlag=      100000 FMFlg1=           0
         NFxFlg=           0 DoJE=T BraDBF=F KetDBF=T FulRan=T
         wScrn=  0.000000 ICntrl=     500 IOpCl=  0 I1Cent=   200000004 NGrid=           0
         NMat0=    1 NMatS0=      1 NMatT0=    0 NMatD0=    1 NMtDS0=    0 NMtDT0=    0
 Symmetry not used in FoFCou.
 SCF Done:  E(RM05) =  -1724.76147231     A.U. after   17 cycles
            NFock= 17  Conv=0.52D-08     -V/T= 2.0061

 **********************************************************************

            Population analysis using the SCF density.

 **********************************************************************

 Alpha  occ. eigenvalues --  -90.56430 -90.53635 -90.53183 -15.08623 -15.05416
 Alpha  occ. eigenvalues --  -15.04969 -15.04934 -10.89944 -10.89826 -10.89737
 Alpha  occ. eigenvalues --  -10.88752 -10.87414 -10.84946 -10.84331 -10.84310
 Alpha  occ. eigenvalues --   -8.57525  -8.55035  -8.54610  -6.40063  -6.39712
 Alpha  occ. eigenvalues --   -6.39401  -6.37596  -6.37282  -6.37163  -6.36853
 Alpha  occ. eigenvalues --   -6.36821  -6.36393  -1.20534  -1.12895  -1.12139
 Alpha  occ. eigenvalues --   -1.11337  -1.07643  -1.03801  -0.98824  -0.97396
 Alpha  occ. eigenvalues --   -0.88003  -0.84555  -0.82236  -0.73686  -0.71296
 Alpha  occ. eigenvalues --   -0.67838  -0.64612  -0.59530  -0.57258  -0.55386
 Alpha  occ. eigenvalues --   -0.53385  -0.52647  -0.52243  -0.51890  -0.50883
 Alpha  occ. eigenvalues --   -0.50387  -0.49356  -0.48215  -0.46805  -0.46074
 Alpha  occ. eigenvalues --   -0.45933  -0.45296  -0.43720  -0.43113  -0.39488
 Alpha  occ. eigenvalues --   -0.37628  -0.33119
 Alpha virt. eigenvalues --   -0.09329  -0.08269  -0.02099  -0.01263  -0.00502
 Alpha virt. eigenvalues --   -0.00362   0.00154   0.01255   0.02022   0.02226
 Alpha virt. eigenvalues --    0.02394   0.02956   0.03188   0.04003   0.04275
 Alpha virt. eigenvalues --    0.04486   0.05427   0.06006   0.06300   0.07068
 Alpha virt. eigenvalues --    0.07273   0.07524   0.07708   0.08289   0.08494
 Alpha virt. eigenvalues --    0.09374   0.10093   0.10393   0.10525   0.10811
 Alpha virt. eigenvalues --    0.11288   0.11390   0.11977   0.12528   0.13227
 Alpha virt. eigenvalues --    0.13486   0.13935   0.14455   0.15076   0.15192
 Alpha virt. eigenvalues --    0.15901   0.16271   0.16678   0.16813   0.17188
 Alpha virt. eigenvalues --    0.17360   0.17846   0.18609   0.19054   0.19564
 Alpha virt. eigenvalues --    0.19861   0.20239   0.20682   0.20942   0.21267
 Alpha virt. eigenvalues --    0.21883   0.22203   0.22584   0.22823   0.23611
 Alpha virt. eigenvalues --    0.23744   0.24110   0.24369   0.24702   0.25260
 Alpha virt. eigenvalues --    0.25695   0.25851   0.26220   0.26626   0.26746
 Alpha virt. eigenvalues --    0.27072   0.28335   0.29195   0.29659   0.30368
 Alpha virt. eigenvalues --    0.30712   0.32417   0.33455   0.34153   0.34714
 Alpha virt. eigenvalues --    0.34949   0.35470   0.36120   0.36936   0.37594
 Alpha virt. eigenvalues --    0.38150   0.39580   0.40728   0.41168   0.42050
 Alpha virt. eigenvalues --    0.42119   0.43485   0.44135   0.45735   0.45979
 Alpha virt. eigenvalues --    0.46958   0.48552   0.49576   0.50238   0.50604
 Alpha virt. eigenvalues --    0.51525   0.51855   0.53530   0.54166   0.54422
 Alpha virt. eigenvalues --    0.54700   0.55465   0.55736   0.55836   0.56452
 Alpha virt. eigenvalues --    0.57774   0.58141   0.58555   0.59214   0.60309
 Alpha virt. eigenvalues --    0.60552   0.61103   0.61587   0.62106   0.62709
 Alpha virt. eigenvalues --    0.63715   0.64719   0.64952   0.66005   0.66557
 Alpha virt. eigenvalues --    0.67686   0.68189   0.68806   0.70108   0.70414
 Alpha virt. eigenvalues --    0.71049   0.72858   0.73467   0.73855   0.75371
 Alpha virt. eigenvalues --    0.75563   0.76458   0.77061   0.77551   0.77844
 Alpha virt. eigenvalues --    0.78245   0.79255   0.79759   0.79881   0.81108
 Alpha virt. eigenvalues --    0.81536   0.82549   0.83277   0.83956   0.84871
 Alpha virt. eigenvalues --    0.85699   0.85939   0.87124   0.87248   0.88403
 Alpha virt. eigenvalues --    0.88459   0.89346   0.89667   0.89830   0.90730
 Alpha virt. eigenvalues --    0.91171   0.91719   0.92828   0.93720   0.94369
 Alpha virt. eigenvalues --    0.95433   0.95563   0.97326   0.98741   0.99312
 Alpha virt. eigenvalues --    0.99847   1.01207   1.02849   1.03575   1.04750
 Alpha virt. eigenvalues --    1.05757   1.06743   1.08039   1.08541   1.09635
 Alpha virt. eigenvalues --    1.10233   1.11401   1.13196   1.13606   1.14404
 Alpha virt. eigenvalues --    1.15323   1.17103   1.18344   1.20286   1.20632
 Alpha virt. eigenvalues --    1.21611   1.22701   1.23934   1.24219   1.26556
 Alpha virt. eigenvalues --    1.27345   1.29755   1.30251   1.32273   1.34127
 Alpha virt. eigenvalues --    1.37315   1.40080   1.40258   1.41566   1.42729
 Alpha virt. eigenvalues --    1.43616   1.45024   1.46463   1.47274   1.49372
 Alpha virt. eigenvalues --    1.49822   1.50475   1.51640   1.51869   1.52335
 Alpha virt. eigenvalues --    1.53716   1.54193   1.55433   1.56138   1.56449
 Alpha virt. eigenvalues --    1.56791   1.58486   1.59724   1.60390   1.60516
 Alpha virt. eigenvalues --    1.62129   1.63281   1.64920   1.66028   1.67546
 Alpha virt. eigenvalues --    1.68615   1.69174   1.70469   1.71324   1.74155
 Alpha virt. eigenvalues --    1.76827   1.77078   1.79016   1.79375   1.81041
 Alpha virt. eigenvalues --    1.82960   1.85920   1.88150   1.89703   1.90609
 Alpha virt. eigenvalues --    1.91370   1.94486   1.95004   1.97392   2.00539
 Alpha virt. eigenvalues --    2.00825   2.05447   2.07037   2.08348   2.08473
 Alpha virt. eigenvalues --    2.10897   2.13937   2.18604   2.20233   2.24596
 Alpha virt. eigenvalues --    2.27643   2.30687   2.37024   2.37401   2.38001
 Alpha virt. eigenvalues --    2.38279   2.39369   2.39930   2.40471   2.42149
 Alpha virt. eigenvalues --    2.42560   2.43755   2.45056   2.51016   2.54995
 Alpha virt. eigenvalues --    2.61158   2.64127   2.68330   2.71897   2.73263
 Alpha virt. eigenvalues --    2.76308   2.78780   2.81841   2.94680   2.99731
 Alpha virt. eigenvalues --    3.01876   3.09941   3.11449   3.15939   3.17849
 Alpha virt. eigenvalues --    3.24293   3.27129   3.35294   3.59307   3.74895
          Condensed to atoms (all electrons):
 Mulliken charges:
               1
     1  C    0.621307
     2  C   -0.109007
     3  S    0.373559
     4  S    0.296699
     5  C    1.039836
     6  C    1.131444
     7  C    0.786181
     8  N   -1.083345
     9  S    0.557458
    10  C   -1.130272
    11  N   -0.167893
    12  C   -1.099772
    13  N   -0.180478
    14  C   -0.852735
    15  N   -0.182983
 Sum of Mulliken charges =  -0.00000
 Mulliken charges with hydrogens summed into heavy atoms:
               1
     1  C    0.621307
     2  C   -0.109007
     3  S    0.373559
     4  S    0.296699
     5  C    1.039836
     6  C    1.131444
     7  C    0.786181
     8  N   -1.083345
     9  S    0.557458
    10  C   -1.130272
    11  N   -0.167893
    12  C   -1.099772
    13  N   -0.180478
    14  C   -0.852735
    15  N   -0.182983
 Electronic spatial extent (au):  <R**2>=           4013.7186
 Charge=             -0.0000 electrons
 Dipole moment (field-independent basis, Debye):
    X=             -1.4333    Y=             -3.8440    Z=              2.2634  Tot=              4.6855

 Test job not archived.
 1\1\GINC-CHIMERA-NODE51\SP\RM05\Gen\C8N4S3\CONNORNM\19-Jan-2019\0\\#T 
 M05/Gen test Massage SCF=(fermi,maxcyc=60)\\M05 opt\\0,1\C,0,-0.893540
 87,-0.48217666,0.10099152\C,0,0.21891201,-1.23416899,0.57299025\S,0,-1
 .00929926,1.27136741,0.11512734\S,0,1.69710817,-0.51385439,1.22924577\
 C,0,0.69074211,1.70837302,-0.13588563\C,0,1.76177413,0.9990096,0.30834
 178\C,0,-1.89612258,-1.34056076,-0.30312465\N,0,0.11850129,-2.54071154
 ,0.54607807\S,0,-1.37926577,-2.97364228,-0.03717291\C,0,0.85459716,2.9
 4062559,-0.83287543\N,0,0.93728559,3.96133001,-1.38289191\C,0,3.092474
 17,1.46465531,0.09304335\N,0,4.1917388,1.82018575,-0.03400592\C,0,-3.1
 7227451,-1.01795739,-0.82517041\N,0,-4.22719845,-0.77146851,-1.2464477
 8\\Version=AS64L-G09RevD.01\HF=-1724.7614723\RMSD=5.156e-09\Dipole=-0.
 5639122,-1.5123501,0.8904922\Quadrupole=-10.3039185,1.7919078,8.512010
 7,-4.2617522,-2.0490677,5.0522681\PG=C01 [X(C8N4S3)]\\@


 THE ... SCIENTISTS WERE WRONG ... THE MOST PERSISTENT PRINCIPLES 
 OF THE UNIVERSE WERE ACCIDENT AND ERROR.

                          -- FRANK HERBERT IN DUNE
 Job cpu time:       0 days  1 hours 47 minutes 40.4 seconds.
 File lengths (MBytes):  RWF=     58 Int=      0 D2E=      0 Chk=      6 Scr=      1
 Normal termination of Gaussian 09 at Sat Jan 19 10:43:01 2019.
