 Entering Gaussian System, Link 0=/data/szalewicgrp/connornm/opt/Gaussian/g09-M05-par/g09/g09
 AtFile(1): blind-aug.gbs
 Initial command:
 /data/szalewicgrp/connornm/opt/Gaussian/g09-M05-par/g09/l1.exe "/scratch/local/Gau-39250.inp" -scrdir="/scratch/local/"
 Entering Link 1 = /data/szalewicgrp/connornm/opt/Gaussian/g09-M05-par/g09/l1.exe PID=     39251.
  
 Copyright (c) 1988,1990,1992,1993,1995,1998,2003,2009,2013,
            Gaussian, Inc.  All Rights Reserved.
  
 This is part of the Gaussian(R) 09 program.  It is based on
 the Gaussian(R) 03 system (copyright 2003, Gaussian, Inc.),
 the Gaussian(R) 98 system (copyright 1998, Gaussian, Inc.),
 the Gaussian(R) 94 system (copyright 1995, Gaussian, Inc.),
 the Gaussian 92(TM) system (copyright 1992, Gaussian, Inc.),
 the Gaussian 90(TM) system (copyright 1990, Gaussian, Inc.),
 the Gaussian 88(TM) system (copyright 1988, Gaussian, Inc.),
 the Gaussian 86(TM) system (copyright 1986, Carnegie Mellon
 University), and the Gaussian 82(TM) system (copyright 1983,
 Carnegie Mellon University). Gaussian is a federally registered
 trademark of Gaussian, Inc.
  
 This software contains proprietary and confidential information,
 including trade secrets, belonging to Gaussian, Inc.
  
 This software is provided under written license and may be
 used, copied, transmitted, or stored only in accord with that
 written license.
  
 The following legend is applicable only to US Government
 contracts under FAR:
  
                    RESTRICTED RIGHTS LEGEND
  
 Use, reproduction and disclosure by the US Government is
 subject to restrictions as set forth in subparagraphs (a)
 and (c) of the Commercial Computer Software - Restricted
 Rights clause in FAR 52.227-19.
  
 Gaussian, Inc.
 340 Quinnipiac St., Bldg. 40, Wallingford CT 06492
  
  
 ---------------------------------------------------------------
 Warning -- This program may not be used in any manner that
 competes with the business of Gaussian, Inc. or will provide
 assistance to any competitor of Gaussian, Inc.  The licensee
 of this program is prohibited from giving any competitor of
 Gaussian, Inc. access to this program.  By using this program,
 the user acknowledges that Gaussian, Inc. is engaged in the
 business of creating and licensing software in the field of
 computational chemistry and represents and warrants to the
 licensee that it is not a competitor of Gaussian, Inc. and that
 it will not use this program in any manner prohibited above.
 ---------------------------------------------------------------
  

 Cite this work as:
 Gaussian 09, Revision D.01,
 M. J. Frisch, G. W. Trucks, H. B. Schlegel, G. E. Scuseria, 
 M. A. Robb, J. R. Cheeseman, G. Scalmani, V. Barone, B. Mennucci, 
 G. A. Petersson, H. Nakatsuji, M. Caricato, X. Li, H. P. Hratchian, 
 A. F. Izmaylov, J. Bloino, G. Zheng, J. L. Sonnenberg, M. Hada, 
 M. Ehara, K. Toyota, R. Fukuda, J. Hasegawa, M. Ishida, T. Nakajima, 
 Y. Honda, O. Kitao, H. Nakai, T. Vreven, J. A. Montgomery, Jr., 
 J. E. Peralta, F. Ogliaro, M. Bearpark, J. J. Heyd, E. Brothers, 
 K. N. Kudin, V. N. Staroverov, T. Keith, R. Kobayashi, J. Normand, 
 K. Raghavachari, A. Rendell, J. C. Burant, S. S. Iyengar, J. Tomasi, 
 M. Cossi, N. Rega, J. M. Millam, M. Klene, J. E. Knox, J. B. Cross, 
 V. Bakken, C. Adamo, J. Jaramillo, R. Gomperts, R. E. Stratmann, 
 O. Yazyev, A. J. Austin, R. Cammi, C. Pomelli, J. W. Ochterski, 
 R. L. Martin, K. Morokuma, V. G. Zakrzewski, G. A. Voth, 
 P. Salvador, J. J. Dannenberg, S. Dapprich, A. D. Daniels, 
 O. Farkas, J. B. Foresman, J. V. Ortiz, J. Cioslowski, 
 and D. J. Fox, Gaussian, Inc., Wallingford CT, 2013.
 
 ******************************************
 Gaussian 09:  AS64L-G09RevD.01 24-Apr-2013
                19-Jan-2019 
 ******************************************
 %Chk=BLIND01095_mA
 %Mem=1GB
 %NProcShared=48
 Will use up to   48 processors via shared memory.
 ---------------------------------------------
 #T M05/Gen test Massage SCF=(fermi,maxcyc=60)
 ---------------------------------------------
 -------
 M05 opt
 -------
 Symbolic Z-matrix:
 Charge =  0 Multiplicity = 1
 6                     0.68647   0.32654  -0.68062 
 6                     0.65185  -1.08909  -0.53701 
 16                    0.31875   1.48229   0.5912 
 16                    0.19596  -1.92428   0.95605 
 6                    -0.91351   0.58411   1.49614 
 6                    -0.95871  -0.76677   1.64009 
 6                     1.12171   0.65385  -1.94898 
 7                     1.01381  -1.80898  -1.57075 
 16                    1.46644  -0.80519  -2.81913 
 6                    -1.87166   1.42975   2.12697 
 7                    -2.61467   2.16073   2.64154 
 6                    -1.96948  -1.38837   2.43122 
 7                    -2.75638  -1.935     3.08918 
 6                     1.31305   1.94074  -2.50797 
 7                     1.48453   2.98907  -2.97987 
 
                    Distance matrix (angstroms):
                    1          2          3          4          5
     1  C    0.000000
     2  C    1.423315   0.000000
     3  S    1.757418   2.827694   0.000000
     4  S    2.825849   1.770477   3.428253   0.000000
     5  C    2.713774   3.063280   1.773167   2.795470   0.000000
     6  C    3.047557   2.727187   2.791121   1.772288   1.359281
     7  C    1.380327   2.291783   2.789903   3.992857   4.001979
     8  N    2.336642   1.310672   3.998700   2.658358   4.341342
     9  S    2.542129   2.439721   4.263822   4.137445   5.120151
    10  C    3.955208   4.450782   2.675676   4.110426   1.425163
    11  N    5.029770   5.597745   3.642685   5.237162   2.586817
    12  C    4.436049   3.971317   4.106384   2.674416   2.424897
    13  N    5.583831   5.047859   5.232040   3.642352   3.504263
    14  C    2.517432   3.674472   3.286888   5.309014   4.778168
    15  N    3.607292   4.826214   4.047461   6.425950   5.618639
                    6          7          8          9         10
     6  C    0.000000
     7  C    4.384939   0.000000
     8  N    3.909794   2.494036   0.000000
     9  S    5.076167   1.733444   1.664607   0.000000
    10  C    2.428007   5.116215   5.699860   6.371958   0.000000
    11  N    3.509330   6.107712   6.831389   7.434461   1.162408
    12  C    1.426163   5.736923   5.009263   6.301738   2.836178
    13  N    2.587713   6.864751   5.995430   7.349618   3.609722
    14  C    5.449573   1.416040   3.876636   2.767765   5.646781
    15  N    6.435818   2.578302   5.022796   3.797715   6.306769
                   11         12         13         14         15
    11  N    0.000000
    12  C    3.613393   0.000000
    13  N    4.122555   1.162293   0.000000
    14  C    6.480188   6.800997   7.931563   0.000000
    15  N    7.006418   7.769948   8.891861   1.162367   0.000000
 Symmetry turned off by external request.
 Framework group  C1[X(C8N4S3)]
 Deg. of freedom    39
 Rotational constants (GHZ):      0.7722167      0.3388923      0.2463240
   357 basis functions,   759 primitive gaussians,   387 cartesian basis functions
    62 alpha electrons       62 beta electrons
       nuclear repulsion energy      1166.1400395364 Hartrees.
 IMHF & INEx in M05                  599485                  400514
 NAtoms=   15 NActive=   15 NUniq=   15 SFac= 1.00D+00 NAtFMM=   60 NAOKFM=F Big=F
 PrsmSu:  requested number of processors reduced to:  34 ShMem   1 Linda.
 ExpMin= 3.99D-02 ExpMax= 1.11D+05 ExpMxC= 1.07D+03 IAcc=3 IRadAn=         5 AccDes= 0.00D+00
 Harris functional with IExCor= 1009 and IRadAn=       5 diagonalized for initial guess.
 HarFok:  IExCor= 1009 AccDes= 0.00D+00 IRadAn=         5 IDoV= 1 UseB2=F ITyADJ=14
 ICtDFT=  3500011 ScaDFX=  1.000000  1.000000  1.000000  1.000000
 FoFCou: FMM=F IPFlag=           0 FMFlag=      100000 FMFlg1=           0
         NFxFlg=           0 DoJE=T BraDBF=F KetDBF=T FulRan=T
         wScrn=  0.000000 ICntrl=     500 IOpCl=  0 I1Cent=   200000004 NGrid=           0
         NMat0=    1 NMatS0=      1 NMatT0=    0 NMatD0=    1 NMtDS0=    0 NMtDT0=    0
 Symmetry not used in FoFCou.
 SCF Done:  E(RM05) =  -1724.76145877     A.U. after   17 cycles
            NFock= 17  Conv=0.52D-08     -V/T= 2.0061

 **********************************************************************

            Population analysis using the SCF density.

 **********************************************************************

 Alpha  occ. eigenvalues --  -90.56431 -90.53636 -90.53182 -15.08622 -15.05417
 Alpha  occ. eigenvalues --  -15.04969 -15.04934 -10.89945 -10.89827 -10.89735
 Alpha  occ. eigenvalues --  -10.88752 -10.87414 -10.84946 -10.84332 -10.84311
 Alpha  occ. eigenvalues --   -8.57526  -8.55036  -8.54609  -6.40064  -6.39713
 Alpha  occ. eigenvalues --   -6.39402  -6.37597  -6.37283  -6.37163  -6.36853
 Alpha  occ. eigenvalues --   -6.36822  -6.36392  -1.20533  -1.12896  -1.12139
 Alpha  occ. eigenvalues --   -1.11338  -1.07643  -1.03801  -0.98824  -0.97396
 Alpha  occ. eigenvalues --   -0.88002  -0.84555  -0.82236  -0.73687  -0.71296
 Alpha  occ. eigenvalues --   -0.67838  -0.64612  -0.59530  -0.57258  -0.55386
 Alpha  occ. eigenvalues --   -0.53385  -0.52648  -0.52243  -0.51890  -0.50883
 Alpha  occ. eigenvalues --   -0.50387  -0.49356  -0.48216  -0.46805  -0.46075
 Alpha  occ. eigenvalues --   -0.45933  -0.45296  -0.43720  -0.43113  -0.39488
 Alpha  occ. eigenvalues --   -0.37628  -0.33119
 Alpha virt. eigenvalues --   -0.09329  -0.08268  -0.02099  -0.01263  -0.00507
 Alpha virt. eigenvalues --   -0.00362   0.00153   0.01255   0.02020   0.02230
 Alpha virt. eigenvalues --    0.02394   0.02958   0.03188   0.04002   0.04277
 Alpha virt. eigenvalues --    0.04486   0.05428   0.06007   0.06300   0.07067
 Alpha virt. eigenvalues --    0.07269   0.07526   0.07707   0.08289   0.08494
 Alpha virt. eigenvalues --    0.09374   0.10092   0.10389   0.10525   0.10808
 Alpha virt. eigenvalues --    0.11287   0.11391   0.11979   0.12528   0.13225
 Alpha virt. eigenvalues --    0.13489   0.13936   0.14453   0.15078   0.15192
 Alpha virt. eigenvalues --    0.15899   0.16270   0.16677   0.16812   0.17189
 Alpha virt. eigenvalues --    0.17364   0.17843   0.18618   0.19051   0.19566
 Alpha virt. eigenvalues --    0.19858   0.20247   0.20685   0.20956   0.21270
 Alpha virt. eigenvalues --    0.21878   0.22206   0.22585   0.22814   0.23612
 Alpha virt. eigenvalues --    0.23744   0.24102   0.24367   0.24704   0.25257
 Alpha virt. eigenvalues --    0.25693   0.25854   0.26226   0.26619   0.26748
 Alpha virt. eigenvalues --    0.27067   0.28334   0.29195   0.29664   0.30367
 Alpha virt. eigenvalues --    0.30711   0.32422   0.33455   0.34153   0.34715
 Alpha virt. eigenvalues --    0.34947   0.35471   0.36122   0.36934   0.37592
 Alpha virt. eigenvalues --    0.38151   0.39575   0.40728   0.41168   0.42047
 Alpha virt. eigenvalues --    0.42124   0.43485   0.44138   0.45736   0.45974
 Alpha virt. eigenvalues --    0.46955   0.48541   0.49568   0.50222   0.50591
 Alpha virt. eigenvalues --    0.51523   0.51857   0.53529   0.54165   0.54425
 Alpha virt. eigenvalues --    0.54699   0.55463   0.55736   0.55838   0.56450
 Alpha virt. eigenvalues --    0.57766   0.58132   0.58554   0.59212   0.60311
 Alpha virt. eigenvalues --    0.60550   0.61100   0.61590   0.62106   0.62708
 Alpha virt. eigenvalues --    0.63711   0.64715   0.64952   0.66006   0.66554
 Alpha virt. eigenvalues --    0.67689   0.68187   0.68804   0.70109   0.70411
 Alpha virt. eigenvalues --    0.71048   0.72859   0.73464   0.73854   0.75372
 Alpha virt. eigenvalues --    0.75566   0.76456   0.77062   0.77550   0.77840
 Alpha virt. eigenvalues --    0.78243   0.79255   0.79759   0.79881   0.81106
 Alpha virt. eigenvalues --    0.81535   0.82545   0.83276   0.83958   0.84872
 Alpha virt. eigenvalues --    0.85699   0.85939   0.87124   0.87250   0.88403
 Alpha virt. eigenvalues --    0.88457   0.89345   0.89666   0.89830   0.90730
 Alpha virt. eigenvalues --    0.91169   0.91723   0.92828   0.93721   0.94367
 Alpha virt. eigenvalues --    0.95432   0.95563   0.97324   0.98747   0.99316
 Alpha virt. eigenvalues --    0.99846   1.01205   1.02846   1.03577   1.04751
 Alpha virt. eigenvalues --    1.05756   1.06747   1.08038   1.08544   1.09635
 Alpha virt. eigenvalues --    1.10231   1.11401   1.13197   1.13607   1.14402
 Alpha virt. eigenvalues --    1.15321   1.17101   1.18346   1.20283   1.20628
 Alpha virt. eigenvalues --    1.21608   1.22701   1.23933   1.24221   1.26558
 Alpha virt. eigenvalues --    1.27347   1.29757   1.30250   1.32271   1.34126
 Alpha virt. eigenvalues --    1.37314   1.40081   1.40257   1.41566   1.42728
 Alpha virt. eigenvalues --    1.43616   1.45023   1.46465   1.47273   1.49369
 Alpha virt. eigenvalues --    1.49824   1.50475   1.51641   1.51866   1.52331
 Alpha virt. eigenvalues --    1.53714   1.54192   1.55429   1.56137   1.56447
 Alpha virt. eigenvalues --    1.56793   1.58485   1.59727   1.60391   1.60515
 Alpha virt. eigenvalues --    1.62128   1.63283   1.64921   1.66029   1.67544
 Alpha virt. eigenvalues --    1.68613   1.69170   1.70470   1.71324   1.74149
 Alpha virt. eigenvalues --    1.76827   1.77078   1.79015   1.79376   1.81040
 Alpha virt. eigenvalues --    1.82959   1.85919   1.88150   1.89702   1.90608
 Alpha virt. eigenvalues --    1.91369   1.94483   1.95005   1.97394   2.00538
 Alpha virt. eigenvalues --    2.00827   2.05448   2.07036   2.08350   2.08474
 Alpha virt. eigenvalues --    2.10897   2.13937   2.18606   2.20236   2.24594
 Alpha virt. eigenvalues --    2.27647   2.30686   2.37025   2.37401   2.38001
 Alpha virt. eigenvalues --    2.38279   2.39369   2.39930   2.40470   2.42150
 Alpha virt. eigenvalues --    2.42560   2.43755   2.45056   2.51011   2.54995
 Alpha virt. eigenvalues --    2.61161   2.64122   2.68330   2.71898   2.73264
 Alpha virt. eigenvalues --    2.76308   2.78780   2.81841   2.94680   2.99730
 Alpha virt. eigenvalues --    3.01877   3.09944   3.11452   3.15940   3.17850
 Alpha virt. eigenvalues --    3.24295   3.27128   3.35296   3.59308   3.74891
          Condensed to atoms (all electrons):
 Mulliken charges:
               1
     1  C    0.619545
     2  C   -0.109648
     3  S    0.374234
     4  S    0.297114
     5  C    1.040108
     6  C    1.131431
     7  C    0.787663
     8  N   -1.083426
     9  S    0.557319
    10  C   -1.129713
    11  N   -0.167929
    12  C   -1.100235
    13  N   -0.180464
    14  C   -0.852948
    15  N   -0.183051
 Sum of Mulliken charges =  -0.00000
 Mulliken charges with hydrogens summed into heavy atoms:
               1
     1  C    0.619545
     2  C   -0.109648
     3  S    0.374234
     4  S    0.297114
     5  C    1.040108
     6  C    1.131431
     7  C    0.787663
     8  N   -1.083426
     9  S    0.557319
    10  C   -1.129713
    11  N   -0.167929
    12  C   -1.100235
    13  N   -0.180464
    14  C   -0.852948
    15  N   -0.183051
 Electronic spatial extent (au):  <R**2>=           4013.7184
 Charge=             -0.0000 electrons
 Dipole moment (field-independent basis, Debye):
    X=              3.5599    Y=             -1.9911    Z=             -2.3050  Tot=              4.6851

 Test job not archived.
 1\1\GINC-CHIMERA-NODE60\SP\RM05\Gen\C8N4S3\CONNORNM\19-Jan-2019\0\\#T 
 M05/Gen test Massage SCF=(fermi,maxcyc=60)\\M05 opt\\0,1\C,0,0.6864714
 3,0.32653586,-0.68061752\C,0,0.65184873,-1.08909318,-0.53701272\S,0,0.
 31874793,1.48229479,0.59119904\S,0,0.19596438,-1.92427655,0.95604673\C
 ,0,-0.9135143,0.58411091,1.4961397\C,0,-0.95871086,-0.76677067,1.64008
 511\C,0,1.12171348,0.65385143,-1.94897556\N,0,1.01380837,-1.80897599,-
 1.57075059\S,0,1.46644026,-0.80519387,-2.81913464\C,0,-1.87165681,1.42
 974644,2.12697498\N,0,-2.61467389,2.1607302,2.6415441\C,0,-1.96948413,
 -1.38836849,2.43122066\N,0,-2.75638247,-1.93499896,3.08918135\C,0,1.31
 304688,1.94074284,-2.50796613\N,0,1.48453292,2.98907469,-2.97986526\\V
 ersion=AS64L-G09RevD.01\HF=-1724.7614588\RMSD=5.152e-09\Dipole=1.40057
 99,-0.7833444,-0.9068532\Quadrupole=1.1399772,-2.9987791,1.8588018,-2.
 0400558,9.9473215,5.3664669\PG=C01 [X(C8N4S3)]\\@


 If your ship doesn't come in, swim out to it!
                          -- Jonathan Winters
 Job cpu time:       0 days  1 hours 51 minutes 20.9 seconds.
 File lengths (MBytes):  RWF=     58 Int=      0 D2E=      0 Chk=      6 Scr=      1
 Normal termination of Gaussian 09 at Sat Jan 19 10:57:00 2019.
