 Entering Gaussian System, Link 0=/data/szalewicgrp/connornm/opt/Gaussian/g09-M05-par/g09/g09
 AtFile(1): blind-aug.gbs
 Initial command:
 /data/szalewicgrp/connornm/opt/Gaussian/g09-M05-par/g09/l1.exe "/scratch/local/Gau-6490.inp" -scrdir="/scratch/local/"
 Entering Link 1 = /data/szalewicgrp/connornm/opt/Gaussian/g09-M05-par/g09/l1.exe PID=      6491.
  
 Copyright (c) 1988,1990,1992,1993,1995,1998,2003,2009,2013,
            Gaussian, Inc.  All Rights Reserved.
  
 This is part of the Gaussian(R) 09 program.  It is based on
 the Gaussian(R) 03 system (copyright 2003, Gaussian, Inc.),
 the Gaussian(R) 98 system (copyright 1998, Gaussian, Inc.),
 the Gaussian(R) 94 system (copyright 1995, Gaussian, Inc.),
 the Gaussian 92(TM) system (copyright 1992, Gaussian, Inc.),
 the Gaussian 90(TM) system (copyright 1990, Gaussian, Inc.),
 the Gaussian 88(TM) system (copyright 1988, Gaussian, Inc.),
 the Gaussian 86(TM) system (copyright 1986, Carnegie Mellon
 University), and the Gaussian 82(TM) system (copyright 1983,
 Carnegie Mellon University). Gaussian is a federally registered
 trademark of Gaussian, Inc.
  
 This software contains proprietary and confidential information,
 including trade secrets, belonging to Gaussian, Inc.
  
 This software is provided under written license and may be
 used, copied, transmitted, or stored only in accord with that
 written license.
  
 The following legend is applicable only to US Government
 contracts under FAR:
  
                    RESTRICTED RIGHTS LEGEND
  
 Use, reproduction and disclosure by the US Government is
 subject to restrictions as set forth in subparagraphs (a)
 and (c) of the Commercial Computer Software - Restricted
 Rights clause in FAR 52.227-19.
  
 Gaussian, Inc.
 340 Quinnipiac St., Bldg. 40, Wallingford CT 06492
  
  
 ---------------------------------------------------------------
 Warning -- This program may not be used in any manner that
 competes with the business of Gaussian, Inc. or will provide
 assistance to any competitor of Gaussian, Inc.  The licensee
 of this program is prohibited from giving any competitor of
 Gaussian, Inc. access to this program.  By using this program,
 the user acknowledges that Gaussian, Inc. is engaged in the
 business of creating and licensing software in the field of
 computational chemistry and represents and warrants to the
 licensee that it is not a competitor of Gaussian, Inc. and that
 it will not use this program in any manner prohibited above.
 ---------------------------------------------------------------
  

 Cite this work as:
 Gaussian 09, Revision D.01,
 M. J. Frisch, G. W. Trucks, H. B. Schlegel, G. E. Scuseria, 
 M. A. Robb, J. R. Cheeseman, G. Scalmani, V. Barone, B. Mennucci, 
 G. A. Petersson, H. Nakatsuji, M. Caricato, X. Li, H. P. Hratchian, 
 A. F. Izmaylov, J. Bloino, G. Zheng, J. L. Sonnenberg, M. Hada, 
 M. Ehara, K. Toyota, R. Fukuda, J. Hasegawa, M. Ishida, T. Nakajima, 
 Y. Honda, O. Kitao, H. Nakai, T. Vreven, J. A. Montgomery, Jr., 
 J. E. Peralta, F. Ogliaro, M. Bearpark, J. J. Heyd, E. Brothers, 
 K. N. Kudin, V. N. Staroverov, T. Keith, R. Kobayashi, J. Normand, 
 K. Raghavachari, A. Rendell, J. C. Burant, S. S. Iyengar, J. Tomasi, 
 M. Cossi, N. Rega, J. M. Millam, M. Klene, J. E. Knox, J. B. Cross, 
 V. Bakken, C. Adamo, J. Jaramillo, R. Gomperts, R. E. Stratmann, 
 O. Yazyev, A. J. Austin, R. Cammi, C. Pomelli, J. W. Ochterski, 
 R. L. Martin, K. Morokuma, V. G. Zakrzewski, G. A. Voth, 
 P. Salvador, J. J. Dannenberg, S. Dapprich, A. D. Daniels, 
 O. Farkas, J. B. Foresman, J. V. Ortiz, J. Cioslowski, 
 and D. J. Fox, Gaussian, Inc., Wallingford CT, 2013.
 
 ******************************************
 Gaussian 09:  AS64L-G09RevD.01 24-Apr-2013
                19-Jan-2019 
 ******************************************
 %Chk=BLIND02609_mB
 %Mem=1GB
 %NProcShared=48
 Will use up to   48 processors via shared memory.
 ---------------------------------------------
 #T M05/Gen test Massage SCF=(fermi,maxcyc=60)
 ---------------------------------------------
 -------
 M05 opt
 -------
 Symbolic Z-matrix:
 Charge =  0 Multiplicity = 1
 6                    -0.04866  -0.71232   9.81718 
 6                     0.22365   0.59436   9.32295 
 16                    0.43468  -1.31922   11.39407 
 16                    1.07616   1.84507   10.24139 
 6                     0.34132   0.16858   12.35421 
 6                     0.59761   1.42183   11.89452 
 6                    -0.68692  -1.45329   8.84307 
 7                    -0.15563   0.86691   8.09832 
 16                   -0.86087  -0.47952   7.41957 
 6                     0.00468  -0.0665    13.71894 
 7                    -0.24883  -0.31031   14.82686 
 6                     0.53966   2.55022   12.76476 
 7                     0.53288   3.49373   13.4435 
 6                    -1.12592  -2.798     8.90783 
 7                    -1.48436  -3.90325   8.94009 
 
                    Distance matrix (angstroms):
                    1          2          3          4          5
     1  C    0.000000
     2  C    1.423315   0.000000
     3  S    1.757418   2.827694   0.000000
     4  S    2.825849   1.770477   3.428253   0.000000
     5  C    2.713774   3.063280   1.773167   2.795470   0.000000
     6  C    3.047557   2.727187   2.791121   1.772288   1.359281
     7  C    1.380327   2.291783   2.789903   3.992857   4.001979
     8  N    2.336642   1.310672   3.998700   2.658358   4.341342
     9  S    2.542129   2.439721   4.263822   4.137445   5.120151
    10  C    3.955208   4.450782   2.675676   4.110426   1.425163
    11  N    5.029770   5.597745   3.642685   5.237162   2.586817
    12  C    4.436049   3.971317   4.106384   2.674416   2.424897
    13  N    5.583831   5.047859   5.232040   3.642352   3.504263
    14  C    2.517432   3.674472   3.286888   5.309014   4.778168
    15  N    3.607292   4.826214   4.047461   6.425950   5.618639
                    6          7          8          9         10
     6  C    0.000000
     7  C    4.384939   0.000000
     8  N    3.909794   2.494036   0.000000
     9  S    5.076167   1.733444   1.664607   0.000000
    10  C    2.428007   5.116215   5.699860   6.371958   0.000000
    11  N    3.509330   6.107712   6.831389   7.434461   1.162408
    12  C    1.426163   5.736923   5.009263   6.301738   2.836178
    13  N    2.587713   6.864751   5.995430   7.349618   3.609722
    14  C    5.449573   1.416040   3.876636   2.767765   5.646781
    15  N    6.435818   2.578302   5.022796   3.797715   6.306769
                   11         12         13         14         15
    11  N    0.000000
    12  C    3.613393   0.000000
    13  N    4.122555   1.162293   0.000000
    14  C    6.480188   6.800997   7.931563   0.000000
    15  N    7.006418   7.769948   8.891861   1.162367   0.000000
 Symmetry turned off by external request.
 Framework group  C1[X(C8N4S3)]
 Deg. of freedom    39
 Rotational constants (GHZ):      0.7722167      0.3388923      0.2463240
   357 basis functions,   759 primitive gaussians,   387 cartesian basis functions
    62 alpha electrons       62 beta electrons
       nuclear repulsion energy      1166.1400399574 Hartrees.
 IMHF & INEx in M05                  599485                  400514
 NAtoms=   15 NActive=   15 NUniq=   15 SFac= 1.00D+00 NAtFMM=   60 NAOKFM=F Big=F
 PrsmSu:  requested number of processors reduced to:  34 ShMem   1 Linda.
 ExpMin= 3.99D-02 ExpMax= 1.11D+05 ExpMxC= 1.07D+03 IAcc=3 IRadAn=         5 AccDes= 0.00D+00
 Harris functional with IExCor= 1009 and IRadAn=       5 diagonalized for initial guess.
 HarFok:  IExCor= 1009 AccDes= 0.00D+00 IRadAn=         5 IDoV= 1 UseB2=F ITyADJ=14
 ICtDFT=  3500011 ScaDFX=  1.000000  1.000000  1.000000  1.000000
 FoFCou: FMM=F IPFlag=           0 FMFlag=      100000 FMFlg1=           0
         NFxFlg=           0 DoJE=T BraDBF=F KetDBF=T FulRan=T
         wScrn=  0.000000 ICntrl=     500 IOpCl=  0 I1Cent=   200000004 NGrid=           0
         NMat0=    1 NMatS0=      1 NMatT0=    0 NMatD0=    1 NMtDS0=    0 NMtDT0=    0
 Symmetry not used in FoFCou.
 SCF Done:  E(RM05) =  -1724.76145565     A.U. after   17 cycles
            NFock= 17  Conv=0.52D-08     -V/T= 2.0061

 **********************************************************************

            Population analysis using the SCF density.

 **********************************************************************

 Alpha  occ. eigenvalues --  -90.56430 -90.53635 -90.53182 -15.08623 -15.05416
 Alpha  occ. eigenvalues --  -15.04969 -15.04934 -10.89944 -10.89826 -10.89736
 Alpha  occ. eigenvalues --  -10.88752 -10.87414 -10.84946 -10.84332 -10.84310
 Alpha  occ. eigenvalues --   -8.57525  -8.55035  -8.54609  -6.40063  -6.39712
 Alpha  occ. eigenvalues --   -6.39401  -6.37597  -6.37282  -6.37163  -6.36853
 Alpha  occ. eigenvalues --   -6.36821  -6.36393  -1.20533  -1.12895  -1.12139
 Alpha  occ. eigenvalues --   -1.11337  -1.07643  -1.03801  -0.98824  -0.97395
 Alpha  occ. eigenvalues --   -0.88002  -0.84555  -0.82236  -0.73686  -0.71296
 Alpha  occ. eigenvalues --   -0.67838  -0.64612  -0.59530  -0.57258  -0.55386
 Alpha  occ. eigenvalues --   -0.53385  -0.52647  -0.52242  -0.51890  -0.50883
 Alpha  occ. eigenvalues --   -0.50387  -0.49356  -0.48215  -0.46805  -0.46074
 Alpha  occ. eigenvalues --   -0.45933  -0.45296  -0.43720  -0.43113  -0.39488
 Alpha  occ. eigenvalues --   -0.37627  -0.33119
 Alpha virt. eigenvalues --   -0.09329  -0.08268  -0.02098  -0.01263  -0.00504
 Alpha virt. eigenvalues --   -0.00361   0.00153   0.01255   0.02018   0.02228
 Alpha virt. eigenvalues --    0.02394   0.02956   0.03188   0.04001   0.04275
 Alpha virt. eigenvalues --    0.04487   0.05427   0.06006   0.06296   0.07067
 Alpha virt. eigenvalues --    0.07272   0.07523   0.07708   0.08287   0.08491
 Alpha virt. eigenvalues --    0.09374   0.10093   0.10394   0.10527   0.10809
 Alpha virt. eigenvalues --    0.11288   0.11391   0.11977   0.12528   0.13227
 Alpha virt. eigenvalues --    0.13490   0.13935   0.14455   0.15077   0.15190
 Alpha virt. eigenvalues --    0.15902   0.16277   0.16680   0.16814   0.17189
 Alpha virt. eigenvalues --    0.17360   0.17836   0.18609   0.19047   0.19555
 Alpha virt. eigenvalues --    0.19862   0.20243   0.20682   0.20946   0.21266
 Alpha virt. eigenvalues --    0.21883   0.22202   0.22582   0.22822   0.23614
 Alpha virt. eigenvalues --    0.23746   0.24113   0.24370   0.24698   0.25263
 Alpha virt. eigenvalues --    0.25698   0.25850   0.26228   0.26623   0.26745
 Alpha virt. eigenvalues --    0.27076   0.28337   0.29193   0.29663   0.30366
 Alpha virt. eigenvalues --    0.30711   0.32419   0.33456   0.34150   0.34714
 Alpha virt. eigenvalues --    0.34950   0.35469   0.36121   0.36934   0.37594
 Alpha virt. eigenvalues --    0.38150   0.39575   0.40727   0.41169   0.42050
 Alpha virt. eigenvalues --    0.42118   0.43486   0.44137   0.45737   0.45980
 Alpha virt. eigenvalues --    0.46957   0.48556   0.49571   0.50234   0.50600
 Alpha virt. eigenvalues --    0.51521   0.51855   0.53531   0.54168   0.54422
 Alpha virt. eigenvalues --    0.54702   0.55464   0.55732   0.55837   0.56450
 Alpha virt. eigenvalues --    0.57776   0.58141   0.58554   0.59215   0.60309
 Alpha virt. eigenvalues --    0.60553   0.61100   0.61584   0.62104   0.62707
 Alpha virt. eigenvalues --    0.63711   0.64713   0.64950   0.66004   0.66557
 Alpha virt. eigenvalues --    0.67688   0.68188   0.68804   0.70106   0.70413
 Alpha virt. eigenvalues --    0.71045   0.72863   0.73464   0.73857   0.75375
 Alpha virt. eigenvalues --    0.75566   0.76457   0.77060   0.77552   0.77842
 Alpha virt. eigenvalues --    0.78245   0.79256   0.79758   0.79882   0.81110
 Alpha virt. eigenvalues --    0.81534   0.82547   0.83273   0.83954   0.84870
 Alpha virt. eigenvalues --    0.85698   0.85937   0.87122   0.87249   0.88403
 Alpha virt. eigenvalues --    0.88459   0.89346   0.89665   0.89830   0.90729
 Alpha virt. eigenvalues --    0.91170   0.91721   0.92830   0.93722   0.94366
 Alpha virt. eigenvalues --    0.95431   0.95566   0.97327   0.98742   0.99311
 Alpha virt. eigenvalues --    0.99844   1.01205   1.02849   1.03574   1.04749
 Alpha virt. eigenvalues --    1.05755   1.06747   1.08038   1.08544   1.09635
 Alpha virt. eigenvalues --    1.10232   1.11402   1.13194   1.13604   1.14401
 Alpha virt. eigenvalues --    1.15320   1.17101   1.18343   1.20283   1.20632
 Alpha virt. eigenvalues --    1.21610   1.22702   1.23934   1.24220   1.26555
 Alpha virt. eigenvalues --    1.27344   1.29756   1.30251   1.32274   1.34124
 Alpha virt. eigenvalues --    1.37311   1.40081   1.40252   1.41568   1.42730
 Alpha virt. eigenvalues --    1.43614   1.45025   1.46466   1.47273   1.49373
 Alpha virt. eigenvalues --    1.49824   1.50475   1.51640   1.51870   1.52336
 Alpha virt. eigenvalues --    1.53715   1.54191   1.55433   1.56136   1.56450
 Alpha virt. eigenvalues --    1.56792   1.58488   1.59725   1.60390   1.60516
 Alpha virt. eigenvalues --    1.62128   1.63280   1.64920   1.66028   1.67546
 Alpha virt. eigenvalues --    1.68614   1.69173   1.70469   1.71324   1.74151
 Alpha virt. eigenvalues --    1.76828   1.77078   1.79015   1.79375   1.81038
 Alpha virt. eigenvalues --    1.82962   1.85919   1.88149   1.89703   1.90608
 Alpha virt. eigenvalues --    1.91367   1.94485   1.95006   1.97393   2.00539
 Alpha virt. eigenvalues --    2.00825   2.05448   2.07036   2.08347   2.08473
 Alpha virt. eigenvalues --    2.10896   2.13936   2.18604   2.20231   2.24594
 Alpha virt. eigenvalues --    2.27646   2.30686   2.37024   2.37401   2.38001
 Alpha virt. eigenvalues --    2.38279   2.39369   2.39930   2.40470   2.42149
 Alpha virt. eigenvalues --    2.42560   2.43754   2.45056   2.51019   2.54996
 Alpha virt. eigenvalues --    2.61157   2.64120   2.68330   2.71898   2.73263
 Alpha virt. eigenvalues --    2.76309   2.78780   2.81840   2.94681   2.99730
 Alpha virt. eigenvalues --    3.01875   3.09943   3.11452   3.15940   3.17849
 Alpha virt. eigenvalues --    3.24292   3.27128   3.35294   3.59307   3.74891
          Condensed to atoms (all electrons):
 Mulliken charges:
               1
     1  C    0.620919
     2  C   -0.108337
     3  S    0.374036
     4  S    0.296994
     5  C    1.040952
     6  C    1.130625
     7  C    0.786128
     8  N   -1.083556
     9  S    0.557212
    10  C   -1.130848
    11  N   -0.167870
    12  C   -1.099927
    13  N   -0.180287
    14  C   -0.853059
    15  N   -0.182983
 Sum of Mulliken charges =  -0.00000
 Mulliken charges with hydrogens summed into heavy atoms:
               1
     1  C    0.620919
     2  C   -0.108337
     3  S    0.374036
     4  S    0.296994
     5  C    1.040952
     6  C    1.130625
     7  C    0.786128
     8  N   -1.083556
     9  S    0.557212
    10  C   -1.130848
    11  N   -0.167870
    12  C   -1.099927
    13  N   -0.180287
    14  C   -0.853059
    15  N   -0.182983
 Electronic spatial extent (au):  <R**2>=          53339.6746
 Charge=             -0.0000 electrons
 Dipole moment (field-independent basis, Debye):
    X=              1.1192    Y=             -0.1436    Z=             -4.5472  Tot=              4.6852

 Test job not archived.
 1\1\GINC-CHIMERA-NODE25\SP\RM05\Gen\C8N4S3\CONNORNM\19-Jan-2019\0\\#T 
 M05/Gen test Massage SCF=(fermi,maxcyc=60)\\M05 opt\\0,1\C,0,-0.048661
 65,-0.71232023,9.81718314\C,0,0.22365028,0.59435705,9.32294902\S,0,0.4
 3467572,-1.31922011,11.39407063\S,0,1.07616178,1.84507039,10.24138716\
 C,0,0.34131828,0.16857612,12.35421063\C,0,0.59760806,1.42183059,11.894
 52287\C,0,-0.68691612,-1.45328805,8.84306757\N,0,-0.15562965,0.8669053
 5,8.09831676\S,0,-0.8608701,-0.47951885,7.41957183\C,0,0.00467522,-0.0
 6650233,13.71894475\N,0,-0.24882947,-0.31030995,14.82686454\C,0,0.5396
 627,2.55022017,12.76476492\N,0,0.53287947,3.49372538,13.44349759\C,0,-
 1.12591833,-2.79800034,8.9078315\N,0,-1.48436095,-3.90324889,8.9400873
 2\\Version=AS64L-G09RevD.01\HF=-1724.7614556\RMSD=5.187e-09\Dipole=0.4
 403379,-0.0564993,-1.7890243\Quadrupole=34.2943031,16.4038648,-50.6981
 679,-4.0749236,10.1697028,-6.8493337\PG=C01 [X(C8N4S3)]\\@


 IF AT FIRST YOU DON'T SUCCEED, TRY, TRY AGAIN.
 THEN GIVE UP;
 THERE'S NO USE BEING A DAMN FOOL ABOUT IT.

                                 -- W. C. FIELDS
 Job cpu time:       0 days  1 hours 38 minutes 18.6 seconds.
 File lengths (MBytes):  RWF=     58 Int=      0 D2E=      0 Chk=      6 Scr=      1
 Normal termination of Gaussian 09 at Sat Jan 19 11:16:50 2019.
