 Entering Gaussian System, Link 0=/data/szalewicgrp/connornm/opt/Gaussian/g09-M05-par/g09/g09
 AtFile(1): blind-aug.gbs
 Initial command:
 /data/szalewicgrp/connornm/opt/Gaussian/g09-M05-par/g09/l1.exe "/scratch/local/Gau-39756.inp" -scrdir="/scratch/local/"
 Entering Link 1 = /data/szalewicgrp/connornm/opt/Gaussian/g09-M05-par/g09/l1.exe PID=     39757.
  
 Copyright (c) 1988,1990,1992,1993,1995,1998,2003,2009,2013,
            Gaussian, Inc.  All Rights Reserved.
  
 This is part of the Gaussian(R) 09 program.  It is based on
 the Gaussian(R) 03 system (copyright 2003, Gaussian, Inc.),
 the Gaussian(R) 98 system (copyright 1998, Gaussian, Inc.),
 the Gaussian(R) 94 system (copyright 1995, Gaussian, Inc.),
 the Gaussian 92(TM) system (copyright 1992, Gaussian, Inc.),
 the Gaussian 90(TM) system (copyright 1990, Gaussian, Inc.),
 the Gaussian 88(TM) system (copyright 1988, Gaussian, Inc.),
 the Gaussian 86(TM) system (copyright 1986, Carnegie Mellon
 University), and the Gaussian 82(TM) system (copyright 1983,
 Carnegie Mellon University). Gaussian is a federally registered
 trademark of Gaussian, Inc.
  
 This software contains proprietary and confidential information,
 including trade secrets, belonging to Gaussian, Inc.
  
 This software is provided under written license and may be
 used, copied, transmitted, or stored only in accord with that
 written license.
  
 The following legend is applicable only to US Government
 contracts under FAR:
  
                    RESTRICTED RIGHTS LEGEND
  
 Use, reproduction and disclosure by the US Government is
 subject to restrictions as set forth in subparagraphs (a)
 and (c) of the Commercial Computer Software - Restricted
 Rights clause in FAR 52.227-19.
  
 Gaussian, Inc.
 340 Quinnipiac St., Bldg. 40, Wallingford CT 06492
  
  
 ---------------------------------------------------------------
 Warning -- This program may not be used in any manner that
 competes with the business of Gaussian, Inc. or will provide
 assistance to any competitor of Gaussian, Inc.  The licensee
 of this program is prohibited from giving any competitor of
 Gaussian, Inc. access to this program.  By using this program,
 the user acknowledges that Gaussian, Inc. is engaged in the
 business of creating and licensing software in the field of
 computational chemistry and represents and warrants to the
 licensee that it is not a competitor of Gaussian, Inc. and that
 it will not use this program in any manner prohibited above.
 ---------------------------------------------------------------
  

 Cite this work as:
 Gaussian 09, Revision D.01,
 M. J. Frisch, G. W. Trucks, H. B. Schlegel, G. E. Scuseria, 
 M. A. Robb, J. R. Cheeseman, G. Scalmani, V. Barone, B. Mennucci, 
 G. A. Petersson, H. Nakatsuji, M. Caricato, X. Li, H. P. Hratchian, 
 A. F. Izmaylov, J. Bloino, G. Zheng, J. L. Sonnenberg, M. Hada, 
 M. Ehara, K. Toyota, R. Fukuda, J. Hasegawa, M. Ishida, T. Nakajima, 
 Y. Honda, O. Kitao, H. Nakai, T. Vreven, J. A. Montgomery, Jr., 
 J. E. Peralta, F. Ogliaro, M. Bearpark, J. J. Heyd, E. Brothers, 
 K. N. Kudin, V. N. Staroverov, T. Keith, R. Kobayashi, J. Normand, 
 K. Raghavachari, A. Rendell, J. C. Burant, S. S. Iyengar, J. Tomasi, 
 M. Cossi, N. Rega, J. M. Millam, M. Klene, J. E. Knox, J. B. Cross, 
 V. Bakken, C. Adamo, J. Jaramillo, R. Gomperts, R. E. Stratmann, 
 O. Yazyev, A. J. Austin, R. Cammi, C. Pomelli, J. W. Ochterski, 
 R. L. Martin, K. Morokuma, V. G. Zakrzewski, G. A. Voth, 
 P. Salvador, J. J. Dannenberg, S. Dapprich, A. D. Daniels, 
 O. Farkas, J. B. Foresman, J. V. Ortiz, J. Cioslowski, 
 and D. J. Fox, Gaussian, Inc., Wallingford CT, 2013.
 
 ******************************************
 Gaussian 09:  AS64L-G09RevD.01 24-Apr-2013
                19-Jan-2019 
 ******************************************
 %Chk=BLIND00574_mB
 %Mem=1GB
 %NProcShared=48
 Will use up to   48 processors via shared memory.
 ---------------------------------------------
 #T M05/Gen test Massage SCF=(fermi,maxcyc=60)
 ---------------------------------------------
 -------
 M05 opt
 -------
 Symbolic Z-matrix:
 Charge =  0 Multiplicity = 1
 6                    -0.26196  -0.86108   6.9351 
 6                    -1.17518  -0.47542   5.91376 
 16                    1.46404  -0.53035   6.92735 
 16                   -0.71886   0.43906   4.46805 
 6                     1.48993   1.02588   6.07788 
 6                     0.62368   1.40683   5.10211 
 6                    -0.92498  -1.59597   7.8972 
 7                    -2.42277  -0.8548    6.04585 
 16                   -2.58769  -1.75771   7.43455 
 6                     2.56571   1.86748   6.48468 
 7                     3.47153   2.50775   6.83216 
 6                     0.76147   2.66633   4.44742 
 7                     0.8531    3.66936   3.86737 
 6                    -0.3984   -2.18166   9.074 
 7                     0.01854  -2.67687   10.03941 
 
                    Distance matrix (angstroms):
                    1          2          3          4          5
     1  C    0.000000
     2  C    1.423315   0.000000
     3  S    1.757418   2.827694   0.000000
     4  S    2.825849   1.770477   3.428253   0.000000
     5  C    2.713774   3.063280   1.773167   2.795470   0.000000
     6  C    3.047557   2.727187   2.791121   1.772288   1.359281
     7  C    1.380327   2.291783   2.789903   3.992857   4.001979
     8  N    2.336642   1.310672   3.998700   2.658358   4.341342
     9  S    2.542129   2.439721   4.263822   4.137445   5.120151
    10  C    3.955208   4.450782   2.675676   4.110426   1.425163
    11  N    5.029770   5.597745   3.642685   5.237162   2.586817
    12  C    4.436049   3.971317   4.106384   2.674416   2.424897
    13  N    5.583831   5.047859   5.232040   3.642352   3.504263
    14  C    2.517432   3.674472   3.286888   5.309014   4.778168
    15  N    3.607292   4.826214   4.047461   6.425950   5.618639
                    6          7          8          9         10
     6  C    0.000000
     7  C    4.384939   0.000000
     8  N    3.909794   2.494036   0.000000
     9  S    5.076167   1.733444   1.664607   0.000000
    10  C    2.428007   5.116215   5.699860   6.371958   0.000000
    11  N    3.509330   6.107712   6.831389   7.434461   1.162408
    12  C    1.426163   5.736923   5.009263   6.301738   2.836178
    13  N    2.587713   6.864751   5.995430   7.349618   3.609722
    14  C    5.449573   1.416040   3.876636   2.767765   5.646781
    15  N    6.435818   2.578302   5.022796   3.797715   6.306769
                   11         12         13         14         15
    11  N    0.000000
    12  C    3.613393   0.000000
    13  N    4.122555   1.162293   0.000000
    14  C    6.480188   6.800997   7.931563   0.000000
    15  N    7.006418   7.769948   8.891861   1.162367   0.000000
 Symmetry turned off by external request.
 Framework group  C1[X(C8N4S3)]
 Deg. of freedom    39
 Rotational constants (GHZ):      0.7722167      0.3388923      0.2463240
   357 basis functions,   759 primitive gaussians,   387 cartesian basis functions
    62 alpha electrons       62 beta electrons
       nuclear repulsion energy      1166.1400391614 Hartrees.
 IMHF & INEx in M05                  599485                  400514
 NAtoms=   15 NActive=   15 NUniq=   15 SFac= 1.00D+00 NAtFMM=   60 NAOKFM=F Big=F
 PrsmSu:  requested number of processors reduced to:  34 ShMem   1 Linda.
 ExpMin= 3.99D-02 ExpMax= 1.11D+05 ExpMxC= 1.07D+03 IAcc=3 IRadAn=         5 AccDes= 0.00D+00
 Harris functional with IExCor= 1009 and IRadAn=       5 diagonalized for initial guess.
 HarFok:  IExCor= 1009 AccDes= 0.00D+00 IRadAn=         5 IDoV= 1 UseB2=F ITyADJ=14
 ICtDFT=  3500011 ScaDFX=  1.000000  1.000000  1.000000  1.000000
 FoFCou: FMM=F IPFlag=           0 FMFlag=      100000 FMFlg1=           0
         NFxFlg=           0 DoJE=T BraDBF=F KetDBF=T FulRan=T
         wScrn=  0.000000 ICntrl=     500 IOpCl=  0 I1Cent=   200000004 NGrid=           0
         NMat0=    1 NMatS0=      1 NMatT0=    0 NMatD0=    1 NMtDS0=    0 NMtDT0=    0
 Symmetry not used in FoFCou.
 SCF Done:  E(RM05) =  -1724.76147658     A.U. after   17 cycles
            NFock= 17  Conv=0.52D-08     -V/T= 2.0061

 **********************************************************************

            Population analysis using the SCF density.

 **********************************************************************

 Alpha  occ. eigenvalues --  -90.56429 -90.53635 -90.53182 -15.08622 -15.05416
 Alpha  occ. eigenvalues --  -15.04969 -15.04933 -10.89945 -10.89827 -10.89736
 Alpha  occ. eigenvalues --  -10.88752 -10.87414 -10.84946 -10.84332 -10.84310
 Alpha  occ. eigenvalues --   -8.57525  -8.55034  -8.54609  -6.40062  -6.39712
 Alpha  occ. eigenvalues --   -6.39400  -6.37596  -6.37281  -6.37163  -6.36853
 Alpha  occ. eigenvalues --   -6.36821  -6.36393  -1.20533  -1.12895  -1.12139
 Alpha  occ. eigenvalues --   -1.11337  -1.07643  -1.03801  -0.98825  -0.97396
 Alpha  occ. eigenvalues --   -0.88003  -0.84555  -0.82236  -0.73686  -0.71297
 Alpha  occ. eigenvalues --   -0.67839  -0.64612  -0.59530  -0.57258  -0.55386
 Alpha  occ. eigenvalues --   -0.53385  -0.52648  -0.52243  -0.51890  -0.50883
 Alpha  occ. eigenvalues --   -0.50387  -0.49357  -0.48215  -0.46805  -0.46074
 Alpha  occ. eigenvalues --   -0.45933  -0.45296  -0.43720  -0.43113  -0.39488
 Alpha  occ. eigenvalues --   -0.37628  -0.33119
 Alpha virt. eigenvalues --   -0.09329  -0.08269  -0.02099  -0.01262  -0.00505
 Alpha virt. eigenvalues --   -0.00361   0.00154   0.01255   0.02022   0.02228
 Alpha virt. eigenvalues --    0.02392   0.02956   0.03188   0.04003   0.04276
 Alpha virt. eigenvalues --    0.04486   0.05429   0.06003   0.06299   0.07067
 Alpha virt. eigenvalues --    0.07272   0.07526   0.07708   0.08291   0.08491
 Alpha virt. eigenvalues --    0.09375   0.10094   0.10393   0.10526   0.10809
 Alpha virt. eigenvalues --    0.11288   0.11392   0.11978   0.12529   0.13227
 Alpha virt. eigenvalues --    0.13482   0.13935   0.14454   0.15075   0.15193
 Alpha virt. eigenvalues --    0.15901   0.16273   0.16676   0.16815   0.17187
 Alpha virt. eigenvalues --    0.17358   0.17843   0.18616   0.19051   0.19565
 Alpha virt. eigenvalues --    0.19857   0.20238   0.20682   0.20939   0.21265
 Alpha virt. eigenvalues --    0.21887   0.22208   0.22580   0.22822   0.23612
 Alpha virt. eigenvalues --    0.23741   0.24117   0.24370   0.24702   0.25261
 Alpha virt. eigenvalues --    0.25695   0.25851   0.26224   0.26623   0.26749
 Alpha virt. eigenvalues --    0.27073   0.28336   0.29193   0.29661   0.30366
 Alpha virt. eigenvalues --    0.30714   0.32420   0.33455   0.34154   0.34714
 Alpha virt. eigenvalues --    0.34949   0.35470   0.36121   0.36938   0.37593
 Alpha virt. eigenvalues --    0.38151   0.39575   0.40726   0.41169   0.42048
 Alpha virt. eigenvalues --    0.42117   0.43484   0.44136   0.45735   0.45980
 Alpha virt. eigenvalues --    0.46960   0.48552   0.49572   0.50236   0.50592
 Alpha virt. eigenvalues --    0.51526   0.51852   0.53528   0.54165   0.54419
 Alpha virt. eigenvalues --    0.54697   0.55464   0.55728   0.55834   0.56451
 Alpha virt. eigenvalues --    0.57772   0.58141   0.58553   0.59216   0.60305
 Alpha virt. eigenvalues --    0.60550   0.61102   0.61584   0.62106   0.62709
 Alpha virt. eigenvalues --    0.63714   0.64716   0.64953   0.66007   0.66558
 Alpha virt. eigenvalues --    0.67692   0.68190   0.68805   0.70109   0.70417
 Alpha virt. eigenvalues --    0.71049   0.72865   0.73470   0.73854   0.75376
 Alpha virt. eigenvalues --    0.75565   0.76459   0.77063   0.77550   0.77845
 Alpha virt. eigenvalues --    0.78247   0.79256   0.79762   0.79881   0.81111
 Alpha virt. eigenvalues --    0.81537   0.82546   0.83280   0.83956   0.84870
 Alpha virt. eigenvalues --    0.85698   0.85939   0.87122   0.87250   0.88401
 Alpha virt. eigenvalues --    0.88459   0.89344   0.89665   0.89831   0.90732
 Alpha virt. eigenvalues --    0.91170   0.91723   0.92830   0.93721   0.94367
 Alpha virt. eigenvalues --    0.95432   0.95565   0.97327   0.98744   0.99312
 Alpha virt. eigenvalues --    0.99849   1.01205   1.02847   1.03578   1.04749
 Alpha virt. eigenvalues --    1.05759   1.06746   1.08038   1.08541   1.09636
 Alpha virt. eigenvalues --    1.10232   1.11403   1.13196   1.13608   1.14404
 Alpha virt. eigenvalues --    1.15320   1.17101   1.18342   1.20284   1.20633
 Alpha virt. eigenvalues --    1.21608   1.22701   1.23938   1.24221   1.26561
 Alpha virt. eigenvalues --    1.27344   1.29759   1.30249   1.32267   1.34126
 Alpha virt. eigenvalues --    1.37311   1.40083   1.40259   1.41565   1.42729
 Alpha virt. eigenvalues --    1.43615   1.45024   1.46464   1.47274   1.49371
 Alpha virt. eigenvalues --    1.49824   1.50472   1.51642   1.51867   1.52334
 Alpha virt. eigenvalues --    1.53715   1.54195   1.55433   1.56135   1.56451
 Alpha virt. eigenvalues --    1.56791   1.58487   1.59723   1.60388   1.60517
 Alpha virt. eigenvalues --    1.62129   1.63280   1.64919   1.66028   1.67546
 Alpha virt. eigenvalues --    1.68611   1.69175   1.70470   1.71324   1.74150
 Alpha virt. eigenvalues --    1.76824   1.77079   1.79014   1.79377   1.81039
 Alpha virt. eigenvalues --    1.82958   1.85919   1.88149   1.89703   1.90609
 Alpha virt. eigenvalues --    1.91370   1.94484   1.95003   1.97393   2.00537
 Alpha virt. eigenvalues --    2.00828   2.05449   2.07035   2.08347   2.08473
 Alpha virt. eigenvalues --    2.10895   2.13936   2.18606   2.20230   2.24592
 Alpha virt. eigenvalues --    2.27645   2.30686   2.37026   2.37401   2.38002
 Alpha virt. eigenvalues --    2.38279   2.39369   2.39931   2.40470   2.42150
 Alpha virt. eigenvalues --    2.42560   2.43756   2.45056   2.51020   2.54996
 Alpha virt. eigenvalues --    2.61159   2.64123   2.68330   2.71899   2.73263
 Alpha virt. eigenvalues --    2.76309   2.78780   2.81841   2.94680   2.99730
 Alpha virt. eigenvalues --    3.01876   3.09942   3.11452   3.15939   3.17850
 Alpha virt. eigenvalues --    3.24292   3.27129   3.35295   3.59307   3.74887
          Condensed to atoms (all electrons):
 Mulliken charges:
               1
     1  C    0.619392
     2  C   -0.108499
     3  S    0.374463
     4  S    0.296612
     5  C    1.039102
     6  C    1.130892
     7  C    0.786692
     8  N   -1.083456
     9  S    0.557696
    10  C   -1.128511
    11  N   -0.168038
    12  C   -1.100057
    13  N   -0.180417
    14  C   -0.852860
    15  N   -0.183009
 Sum of Mulliken charges =  -0.00000
 Mulliken charges with hydrogens summed into heavy atoms:
               1
     1  C    0.619392
     2  C   -0.108499
     3  S    0.374463
     4  S    0.296612
     5  C    1.039102
     6  C    1.130892
     7  C    0.786692
     8  N   -1.083456
     9  S    0.557696
    10  C   -1.128511
    11  N   -0.168038
    12  C   -1.100057
    13  N   -0.180417
    14  C   -0.852860
    15  N   -0.183009
 Electronic spatial extent (au):  <R**2>=          22469.3686
 Charge=             -0.0000 electrons
 Dipole moment (field-independent basis, Debye):
    X=             -3.1457    Y=             -3.3837    Z=             -0.7803  Tot=              4.6855

 Test job not archived.
 1\1\GINC-CHIMERA-NODE60\SP\RM05\Gen\C8N4S3\CONNORNM\19-Jan-2019\0\\#T 
 M05/Gen test Massage SCF=(fermi,maxcyc=60)\\M05 opt\\0,1\C,0,-0.261963
 34,-0.86107568,6.93509858\C,0,-1.1751823,-0.47542271,5.91376143\S,0,1.
 46403638,-0.53034682,6.92735015\S,0,-0.71885583,0.43905797,4.46805068\
 C,0,1.48993101,1.02588287,6.07787933\C,0,0.62367856,1.40682734,5.10210
 678\C,0,-0.92497885,-1.59596837,7.89720376\N,0,-2.42277362,-0.85480064
 ,6.04585352\S,0,-2.58769369,-1.75770506,7.43455143\C,0,2.56571282,1.86
 748487,6.48468301\N,0,3.47152989,2.50775495,6.83216349\C,0,0.76146639,
 2.66632607,4.44741647\N,0,0.85310374,3.66936163,3.86737476\C,0,-0.3984
 0361,-2.18166086,9.0740008\N,0,0.01854356,-2.67687007,10.03941201\\Ver
 sion=AS64L-G09RevD.01\HF=-1724.7614766\RMSD=5.166e-09\Dipole=-1.237629
 4,-1.3312322,-0.3069939\Quadrupole=6.8735871,-1.5832798,-5.2903073,-4.
 6346382,-18.9596458,-7.0473285\PG=C01 [X(C8N4S3)]\\@


 A SLIP OF THE FOOT YOU MAY SOON RECOVER, BUT A SLIP OF THE TONGUE
 YOU MAY NEVER GET OVER. -- BEN FRANKLIN
 Job cpu time:       0 days  1 hours 48 minutes 40.1 seconds.
 File lengths (MBytes):  RWF=     58 Int=      0 D2E=      0 Chk=      6 Scr=      1
 Normal termination of Gaussian 09 at Sat Jan 19 10:59:20 2019.
