 Entering Gaussian System, Link 0=/data/szalewicgrp/connornm/opt/Gaussian/g09-M05-par/g09/g09
 AtFile(1): blind-aug.gbs
 Initial command:
 /data/szalewicgrp/connornm/opt/Gaussian/g09-M05-par/g09/l1.exe "/scratch/local/Gau-4784.inp" -scrdir="/scratch/local/"
 Entering Link 1 = /data/szalewicgrp/connornm/opt/Gaussian/g09-M05-par/g09/l1.exe PID=      4785.
  
 Copyright (c) 1988,1990,1992,1993,1995,1998,2003,2009,2013,
            Gaussian, Inc.  All Rights Reserved.
  
 This is part of the Gaussian(R) 09 program.  It is based on
 the Gaussian(R) 03 system (copyright 2003, Gaussian, Inc.),
 the Gaussian(R) 98 system (copyright 1998, Gaussian, Inc.),
 the Gaussian(R) 94 system (copyright 1995, Gaussian, Inc.),
 the Gaussian 92(TM) system (copyright 1992, Gaussian, Inc.),
 the Gaussian 90(TM) system (copyright 1990, Gaussian, Inc.),
 the Gaussian 88(TM) system (copyright 1988, Gaussian, Inc.),
 the Gaussian 86(TM) system (copyright 1986, Carnegie Mellon
 University), and the Gaussian 82(TM) system (copyright 1983,
 Carnegie Mellon University). Gaussian is a federally registered
 trademark of Gaussian, Inc.
  
 This software contains proprietary and confidential information,
 including trade secrets, belonging to Gaussian, Inc.
  
 This software is provided under written license and may be
 used, copied, transmitted, or stored only in accord with that
 written license.
  
 The following legend is applicable only to US Government
 contracts under FAR:
  
                    RESTRICTED RIGHTS LEGEND
  
 Use, reproduction and disclosure by the US Government is
 subject to restrictions as set forth in subparagraphs (a)
 and (c) of the Commercial Computer Software - Restricted
 Rights clause in FAR 52.227-19.
  
 Gaussian, Inc.
 340 Quinnipiac St., Bldg. 40, Wallingford CT 06492
  
  
 ---------------------------------------------------------------
 Warning -- This program may not be used in any manner that
 competes with the business of Gaussian, Inc. or will provide
 assistance to any competitor of Gaussian, Inc.  The licensee
 of this program is prohibited from giving any competitor of
 Gaussian, Inc. access to this program.  By using this program,
 the user acknowledges that Gaussian, Inc. is engaged in the
 business of creating and licensing software in the field of
 computational chemistry and represents and warrants to the
 licensee that it is not a competitor of Gaussian, Inc. and that
 it will not use this program in any manner prohibited above.
 ---------------------------------------------------------------
  

 Cite this work as:
 Gaussian 09, Revision D.01,
 M. J. Frisch, G. W. Trucks, H. B. Schlegel, G. E. Scuseria, 
 M. A. Robb, J. R. Cheeseman, G. Scalmani, V. Barone, B. Mennucci, 
 G. A. Petersson, H. Nakatsuji, M. Caricato, X. Li, H. P. Hratchian, 
 A. F. Izmaylov, J. Bloino, G. Zheng, J. L. Sonnenberg, M. Hada, 
 M. Ehara, K. Toyota, R. Fukuda, J. Hasegawa, M. Ishida, T. Nakajima, 
 Y. Honda, O. Kitao, H. Nakai, T. Vreven, J. A. Montgomery, Jr., 
 J. E. Peralta, F. Ogliaro, M. Bearpark, J. J. Heyd, E. Brothers, 
 K. N. Kudin, V. N. Staroverov, T. Keith, R. Kobayashi, J. Normand, 
 K. Raghavachari, A. Rendell, J. C. Burant, S. S. Iyengar, J. Tomasi, 
 M. Cossi, N. Rega, J. M. Millam, M. Klene, J. E. Knox, J. B. Cross, 
 V. Bakken, C. Adamo, J. Jaramillo, R. Gomperts, R. E. Stratmann, 
 O. Yazyev, A. J. Austin, R. Cammi, C. Pomelli, J. W. Ochterski, 
 R. L. Martin, K. Morokuma, V. G. Zakrzewski, G. A. Voth, 
 P. Salvador, J. J. Dannenberg, S. Dapprich, A. D. Daniels, 
 O. Farkas, J. B. Foresman, J. V. Ortiz, J. Cioslowski, 
 and D. J. Fox, Gaussian, Inc., Wallingford CT, 2013.
 
 ******************************************
 Gaussian 09:  AS64L-G09RevD.01 24-Apr-2013
                19-Jan-2019 
 ******************************************
 %Chk=BLIND02190
 %Mem=1GB
 %NProcShared=48
 Will use up to   48 processors via shared memory.
 ---------------------------------------------
 #T M05/Gen test Massage SCF=(fermi,maxcyc=60)
 ---------------------------------------------
 -------
 M05 opt
 -------
 Symbolic Z-matrix:
 Charge =  0 Multiplicity = 1
 6                     0.41422   0.17469  -0.91598 
 6                     0.43538  -1.19523  -0.53036 
 16                    0.49479   1.53874   0.18919 
 16                    0.51511  -1.75259   1.14821 
 6                    -0.35493   0.86657   1.59286 
 6                    -0.34383  -0.43892   1.97131 
 6                     0.393     0.26896  -2.29292 
 7                     0.42845  -2.09104  -1.48709 
 16                    0.42791  -1.32789  -2.96646 
 6                    -1.04585   1.85366   2.35403 
 7                    -1.57332   2.69734   2.95501 
 6                    -1.02469  -0.86892   3.14837 
 7                    -1.54028  -1.2587    4.11438 
 6                     0.37907   1.4365   -3.09407 
 7                     0.37682   2.38408  -3.76725 
 6                     0.43593   0.54689   8.8441 
 6                     0.56347   1.13195   10.13532 
 16                    0.3459   -1.17778   8.51864 
 16                    0.62054   0.20589   11.64321 
 6                    -0.49968  -1.73637   9.97366 
 6                    -0.38764  -1.18635   11.21163 
 6                     0.46569   1.53576   7.88152 
 7                     0.67829   2.4361    10.19764 
 16                    0.67295   3.07117   8.65894 
 6                    -1.30865  -2.8869    9.74362 
 7                    -1.93521  -3.83828   9.51232 
 6                    -1.07719  -1.74353   12.32877 
 7                    -1.59682  -2.18104   13.2719 
 6                     0.38144   1.39622   6.47489 
 7                     0.32307   1.29961   5.31802 
 
                    Distance matrix (angstroms):
                    1          2          3          4          5
     1  C    0.000000
     2  C    1.423315   0.000000
     3  S    1.757418   2.827694   0.000000
     4  S    2.825849   1.770477   3.428253   0.000000
     5  C    2.713774   3.063280   1.773167   2.795470   0.000000
     6  C    3.047557   2.727187   2.791121   1.772288   1.359281
     7  C    1.380327   2.291783   2.789903   3.992857   4.001979
     8  N    2.336642   1.310672   3.998700   2.658358   4.341342
     9  S    2.542129   2.439721   4.263822   4.137445   5.120151
    10  C    3.955208   4.450782   2.675676   4.110426   1.425163
    11  N    5.029770   5.597745   3.642685   5.237162   2.586817
    12  C    4.436049   3.971317   4.106384   2.674416   2.424897
    13  N    5.583831   5.047859   5.232040   3.642352   3.504263
    14  C    2.517432   3.674472   3.286888   5.309014   4.778168
    15  N    3.607292   4.826214   4.047461   6.425950   5.618639
    16  C    9.767194   9.534959   8.711751   8.032471   7.301236
    17  C   11.093688  10.917372   9.954685   9.438812   8.595785
    18  S    9.531309   9.049459   8.762495   7.394749   7.255129
    19  S   12.560926  12.255339  11.531997  10.676699  10.119170
    20  C   11.093764  10.559433  10.365864   8.883620   8.776903
    21  C   12.230056  11.770802  11.388543  10.119687   9.835457
    22  C    8.902308   8.844145   7.692381   7.493539   6.377178
    23  N   11.344432  11.328524  10.050269   9.973157   8.807559
    24  S   10.006782  10.134196   8.609112   8.927748   7.473038
    25  C   11.223573  10.557368  10.682964   8.859676   9.024019
    26  N   11.418103  10.651797  11.033488   8.961725   9.346157
    27  C   13.465781  12.959390  12.673349  11.293385  11.072217
    28  N   14.522042  13.985855  13.761137  12.313726  12.133844
    29  C    7.491205   7.469407   6.288336   6.189215   4.965578
    30  N    6.335334   6.359272   5.137268   5.171081   3.811034
                    6          7          8          9         10
     6  C    0.000000
     7  C    4.384939   0.000000
     8  N    3.909794   2.494036   0.000000
     9  S    5.076167   1.733444   1.664607   0.000000
    10  C    2.428007   5.116215   5.699860   6.371958   0.000000
    11  N    3.509330   6.107712   6.831389   7.434461   1.162408
    12  C    1.426163   5.736923   5.009263   6.301738   2.836178
    13  N    2.587713   6.864751   5.995430   7.349618   3.609722
    14  C    5.449573   1.416040   3.876636   2.767765   5.646781
    15  N    6.435818   2.578302   5.022796   3.797715   6.306769
    16  C    6.986775  11.140566  10.662656  11.958434   6.784124
    17  C    8.363128  12.459335  12.061778  13.331390   7.978681
    18  S    6.624887  10.908028  10.047663  11.486373   7.009212
    19  S    9.741225  13.938133  13.331082  14.691228   9.580242
    20  C    8.108344  12.461429  11.503743  12.979754   8.440703
    21  C    9.270600  13.605152  12.757039  14.202232   9.387867
    22  C    6.283725  10.253254  10.046189  11.219650   5.739247
    23  N    8.773988  12.680373  12.533567  13.693932   8.051964
    24  S    7.620956  11.308141  11.386406  12.432290   6.647449
    25  C    8.205621  12.559192  11.392092  12.922547   8.783397
    26  N    8.423472  12.714306  11.385374  12.946284   9.188597
    27  C   10.465026  14.832580  13.902009  15.374727  10.603598
    28  N   11.502535  15.881611  14.897577  16.386332  11.652571
    29  C    4.916906   8.839984   8.692316   9.826599   4.384967
    30  N    3.829839   7.680721   7.603757   8.691796   3.311519
                   11         12         13         14         15
    11  N    0.000000
    12  C    3.613393   0.000000
    13  N    4.122555   1.162293   0.000000
    14  C    6.480188   6.800997   7.931563   0.000000
    15  N    7.006418   7.769948   8.891861   1.162367   0.000000
    16  C    6.583530   6.048076   5.434682  11.971399  12.744598
    17  C    7.653315   7.439303   6.811218  13.234181  13.960093
    18  S    7.046554   5.551007   4.791839  11.903381  12.791827
    19  S    9.300821   8.719193   7.968529  14.790543  15.565548
    20  C    8.370901   6.900193   5.970107  13.476083  14.372160
    21  C    9.201123   8.094610   7.190601  14.564344  15.417495
    22  C    5.456858   5.514199   5.101392  10.976375  11.679952
    23  N    7.589049   7.969657   7.455169  13.332597  13.968236
    24  S    6.141689   6.983745   6.655760  11.869786  12.448697
    25  C    8.794260   6.902906   5.864554  13.650872  14.600259
    26  N    9.265183   7.081378   5.995660  13.860017  14.846216
    27  C   10.384357   9.222115   8.241705  15.814462  16.680323
    28  N   11.412161  10.224228   9.204027  16.877076  17.750162
    29  C    4.231262   4.263074   4.039009   9.569042  10.289669
    30  N    3.336729   3.350575   3.386110   8.413384   9.149919
                   16         17         18         19         20
    16  C    0.000000
    17  C    1.423315   0.000000
    18  S    1.757418   2.827694   0.000000
    19  S    2.825849   1.770477   3.428253   0.000000
    20  C    2.713774   3.063280   1.773167   2.795470   0.000000
    21  C    3.047557   2.727187   2.791121   1.772288   1.359281
    22  C    1.380327   2.291783   2.789903   3.992857   4.001979
    23  N    2.336642   1.310672   3.998700   2.658358   4.341342
    24  S    2.542129   2.439721   4.263822   4.137445   5.120151
    25  C    3.955208   4.450782   2.675676   4.110426   1.425163
    26  N    5.029770   5.597745   3.642685   5.237162   2.586817
    27  C    4.436049   3.971317   4.106384   2.674416   2.424897
    28  N    5.583831   5.047859   5.232040   3.642352   3.504263
    29  C    2.517432   3.674472   3.286888   5.309014   4.778168
    30  N    3.607292   4.826214   4.047461   6.425950   5.618639
                   21         22         23         24         25
    21  C    0.000000
    22  C    4.384939   0.000000
    23  N    3.909794   2.494036   0.000000
    24  S    5.076167   1.733444   1.664607   0.000000
    25  C    2.428007   5.116215   5.699860   6.371958   0.000000
    26  N    3.509330   6.107712   6.831389   7.434461   1.162408
    27  C    1.426163   5.736923   5.009263   6.301738   2.836178
    28  N    2.587713   6.864751   5.995430   7.349618   3.609722
    29  C    5.449573   1.416040   3.876636   2.767765   5.646781
    30  N    6.435818   2.578302   5.022796   3.797715   6.306769
                   26         27         28         29         30
    26  N    0.000000
    27  C    3.613393   0.000000
    28  N    4.122555   1.162293   0.000000
    29  C    6.480188   6.800997   7.931563   0.000000
    30  N    7.006418   7.769948   8.891861   1.162367   0.000000
 Symmetry turned off by external request.
 Framework group  C1[X(C16N8S6)]
 Deg. of freedom    84
 Rotational constants (GHZ):      0.2709299      0.0361972      0.0329183
   714 basis functions,  1518 primitive gaussians,   774 cartesian basis functions
   124 alpha electrons      124 beta electrons
       nuclear repulsion energy      3232.9274331022 Hartrees.
 IMHF & INEx in M05                  599485                  400514
 NAtoms=   30 NActive=   30 NUniq=   30 SFac= 1.00D+00 NAtFMM=   60 NAOKFM=F Big=F
 PrsmSu:  requested number of processors reduced to:  26 ShMem   1 Linda.
 ExpMin= 3.99D-02 ExpMax= 1.11D+05 ExpMxC= 1.07D+03 IAcc=3 IRadAn=         5 AccDes= 0.00D+00
 Harris functional with IExCor= 1009 and IRadAn=       5 diagonalized for initial guess.
 HarFok:  IExCor= 1009 AccDes= 0.00D+00 IRadAn=         5 IDoV= 1 UseB2=F ITyADJ=14
 ICtDFT=  3500011 ScaDFX=  1.000000  1.000000  1.000000  1.000000
 FoFCou: FMM=F IPFlag=           0 FMFlag=      100000 FMFlg1=           0
         NFxFlg=           0 DoJE=T BraDBF=F KetDBF=T FulRan=T
         wScrn=  0.000000 ICntrl=     500 IOpCl=  0 I1Cent=   200000004 NGrid=           0
         NMat0=    1 NMatS0=      1 NMatT0=    0 NMatD0=    1 NMtDS0=    0 NMtDT0=    0
 Symmetry not used in FoFCou.
 SCF Done:  E(RM05) =  -3448.35915759     A.U. after   17 cycles
            NFock= 17  Conv=0.85D-08     -V/T= 2.0058

 **********************************************************************

            Population analysis using the SCF density.

 **********************************************************************

 Alpha  occ. eigenvalues --  -90.54398 -90.54393 -90.51518 -90.51493 -90.51134
 Alpha  occ. eigenvalues --  -90.51031 -15.07520 -15.07513 -15.04359 -15.04317
 Alpha  occ. eigenvalues --  -15.03839 -15.03736 -15.03488 -15.03360 -10.88848
 Alpha  occ. eigenvalues --  -10.88742 -10.88668 -10.88659 -10.88639 -10.88531
 Alpha  occ. eigenvalues --  -10.87699 -10.87686 -10.86363 -10.86362 -10.84046
 Alpha  occ. eigenvalues --  -10.83997 -10.83304 -10.83186 -10.83035 -10.82897
 Alpha  occ. eigenvalues --   -8.57009  -8.56997  -8.54425  -8.54403  -8.54073
 Alpha  occ. eigenvalues --   -8.53969  -6.39731  -6.39720  -6.39381  -6.39369
 Alpha  occ. eigenvalues --   -6.39070  -6.39059  -6.37172  -6.37149  -6.36858
 Alpha  occ. eigenvalues --   -6.36836  -6.36811  -6.36707  -6.36502  -6.36399
 Alpha  occ. eigenvalues --   -6.36397  -6.36377  -6.36043  -6.35939  -1.20235
 Alpha  occ. eigenvalues --   -1.20233  -1.12528  -1.12251  -1.11883  -1.11877
 Alpha  occ. eigenvalues --   -1.10962  -1.10632  -1.07295  -1.07108  -1.03485
 Alpha  occ. eigenvalues --   -1.03452  -0.98505  -0.98411  -0.97070  -0.96991
 Alpha  occ. eigenvalues --   -0.87697  -0.87622  -0.84244  -0.84122  -0.81937
 Alpha  occ. eigenvalues --   -0.81876  -0.73370  -0.73172  -0.70998  -0.70935
 Alpha  occ. eigenvalues --   -0.67562  -0.67504  -0.64354  -0.64268  -0.59285
 Alpha  occ. eigenvalues --   -0.59251  -0.56950  -0.56841  -0.55191  -0.55095
 Alpha  occ. eigenvalues --   -0.53151  -0.53019  -0.52532  -0.52380  -0.51968
 Alpha  occ. eigenvalues --   -0.51840  -0.51556  -0.51348  -0.50633  -0.50474
 Alpha  occ. eigenvalues --   -0.50214  -0.50058  -0.49131  -0.49041  -0.47934
 Alpha  occ. eigenvalues --   -0.47742  -0.46548  -0.46438  -0.45794  -0.45627
 Alpha  occ. eigenvalues --   -0.45412  -0.45355  -0.45007  -0.44840  -0.43456
 Alpha  occ. eigenvalues --   -0.43411  -0.42820  -0.42731  -0.39195  -0.39049
 Alpha  occ. eigenvalues --   -0.37353  -0.37310  -0.32798  -0.32712
 Alpha virt. eigenvalues --   -0.09052  -0.08846  -0.08034  -0.08011  -0.01921
 Alpha virt. eigenvalues --   -0.01749  -0.01036  -0.01000  -0.00350  -0.00206
 Alpha virt. eigenvalues --   -0.00140   0.00162   0.00453   0.00509   0.01396
 Alpha virt. eigenvalues --    0.01704   0.02036   0.02325   0.02580   0.02625
 Alpha virt. eigenvalues --    0.02758   0.03082   0.03199   0.03378   0.03558
 Alpha virt. eigenvalues --    0.03956   0.04111   0.04404   0.04637   0.04831
 Alpha virt. eigenvalues --    0.05064   0.05379   0.06051   0.06229   0.06436
 Alpha virt. eigenvalues --    0.06780   0.06910   0.07238   0.07417   0.07444
 Alpha virt. eigenvalues --    0.07805   0.08078   0.08171   0.08341   0.08581
 Alpha virt. eigenvalues --    0.08796   0.09090   0.09548   0.09664   0.09776
 Alpha virt. eigenvalues --    0.10010   0.10399   0.10771   0.10851   0.10926
 Alpha virt. eigenvalues --    0.11184   0.11430   0.11594   0.11691   0.12087
 Alpha virt. eigenvalues --    0.12279   0.12438   0.12491   0.13091   0.13198
 Alpha virt. eigenvalues --    0.13477   0.13765   0.13869   0.14129   0.14403
 Alpha virt. eigenvalues --    0.14535   0.14750   0.14976   0.15316   0.15414
 Alpha virt. eigenvalues --    0.15766   0.15978   0.16099   0.16440   0.16518
 Alpha virt. eigenvalues --    0.16694   0.16829   0.17017   0.17275   0.17523
 Alpha virt. eigenvalues --    0.17709   0.17821   0.18037   0.18250   0.18392
 Alpha virt. eigenvalues --    0.18701   0.18862   0.19016   0.19447   0.19599
 Alpha virt. eigenvalues --    0.20072   0.20244   0.20306   0.20458   0.20587
 Alpha virt. eigenvalues --    0.20763   0.21182   0.21219   0.21435   0.21870
 Alpha virt. eigenvalues --    0.21962   0.22188   0.22423   0.22591   0.22715
 Alpha virt. eigenvalues --    0.23029   0.23292   0.23489   0.23602   0.23911
 Alpha virt. eigenvalues --    0.23985   0.24278   0.24517   0.24819   0.25005
 Alpha virt. eigenvalues --    0.25197   0.25229   0.25412   0.25625   0.25981
 Alpha virt. eigenvalues --    0.26028   0.26078   0.26336   0.26445   0.27039
 Alpha virt. eigenvalues --    0.27309   0.27513   0.27598   0.27894   0.28160
 Alpha virt. eigenvalues --    0.28427   0.28875   0.29027   0.29334   0.29723
 Alpha virt. eigenvalues --    0.29756   0.29984   0.30289   0.30385   0.30732
 Alpha virt. eigenvalues --    0.31161   0.31609   0.31696   0.31902   0.32531
 Alpha virt. eigenvalues --    0.33069   0.33475   0.33874   0.34515   0.34821
 Alpha virt. eigenvalues --    0.35101   0.35230   0.35353   0.35597   0.36044
 Alpha virt. eigenvalues --    0.36414   0.36760   0.36978   0.37329   0.37722
 Alpha virt. eigenvalues --    0.38124   0.38484   0.38785   0.39163   0.39350
 Alpha virt. eigenvalues --    0.39922   0.40289   0.41281   0.41588   0.41855
 Alpha virt. eigenvalues --    0.41979   0.42390   0.42908   0.43235   0.43455
 Alpha virt. eigenvalues --    0.44156   0.44498   0.44995   0.45699   0.46133
 Alpha virt. eigenvalues --    0.46282   0.46802   0.47291   0.47531   0.48180
 Alpha virt. eigenvalues --    0.48852   0.49138   0.49689   0.50108   0.50881
 Alpha virt. eigenvalues --    0.51003   0.51154   0.51887   0.51957   0.52363
 Alpha virt. eigenvalues --    0.52569   0.53111   0.53578   0.53886   0.54525
 Alpha virt. eigenvalues --    0.54690   0.54955   0.55206   0.55266   0.55571
 Alpha virt. eigenvalues --    0.55961   0.56143   0.56244   0.56579   0.56892
 Alpha virt. eigenvalues --    0.57341   0.57520   0.57897   0.58226   0.58592
 Alpha virt. eigenvalues --    0.58806   0.59064   0.59398   0.60317   0.60485
 Alpha virt. eigenvalues --    0.60803   0.60948   0.61325   0.61894   0.62014
 Alpha virt. eigenvalues --    0.62301   0.62664   0.62731   0.63332   0.63634
 Alpha virt. eigenvalues --    0.63831   0.64090   0.64285   0.64424   0.65121
 Alpha virt. eigenvalues --    0.65479   0.65836   0.65940   0.66285   0.66656
 Alpha virt. eigenvalues --    0.67047   0.67461   0.67860   0.68447   0.68572
 Alpha virt. eigenvalues --    0.68748   0.69084   0.69864   0.70048   0.70478
 Alpha virt. eigenvalues --    0.70888   0.71363   0.71501   0.71661   0.72369
 Alpha virt. eigenvalues --    0.72593   0.73497   0.73775   0.74061   0.74343
 Alpha virt. eigenvalues --    0.74569   0.75130   0.75185   0.75966   0.76886
 Alpha virt. eigenvalues --    0.77160   0.77442   0.77573   0.77742   0.77779
 Alpha virt. eigenvalues --    0.77889   0.78591   0.78881   0.79065   0.79475
 Alpha virt. eigenvalues --    0.79778   0.80369   0.80454   0.80657   0.80997
 Alpha virt. eigenvalues --    0.81372   0.81669   0.82095   0.82492   0.82698
 Alpha virt. eigenvalues --    0.82978   0.83058   0.83341   0.83942   0.84233
 Alpha virt. eigenvalues --    0.84744   0.85601   0.85852   0.85956   0.86539
 Alpha virt. eigenvalues --    0.86702   0.87201   0.87313   0.87574   0.88146
 Alpha virt. eigenvalues --    0.88921   0.88989   0.89172   0.89610   0.89685
 Alpha virt. eigenvalues --    0.89904   0.90214   0.90479   0.90891   0.91020
 Alpha virt. eigenvalues --    0.91457   0.91807   0.91965   0.92452   0.92509
 Alpha virt. eigenvalues --    0.92924   0.93139   0.94000   0.94277   0.94621
 Alpha virt. eigenvalues --    0.94903   0.95248   0.95872   0.96131   0.96625
 Alpha virt. eigenvalues --    0.96862   0.97307   0.98256   0.98449   0.99134
 Alpha virt. eigenvalues --    0.99435   0.99980   1.00431   1.00519   1.00868
 Alpha virt. eigenvalues --    1.01580   1.02337   1.02590   1.03618   1.04220
 Alpha virt. eigenvalues --    1.04422   1.04796   1.04982   1.05829   1.06064
 Alpha virt. eigenvalues --    1.06965   1.07750   1.07862   1.08417   1.08708
 Alpha virt. eigenvalues --    1.09016   1.09562   1.09963   1.10737   1.10843
 Alpha virt. eigenvalues --    1.10982   1.11484   1.12700   1.13010   1.14027
 Alpha virt. eigenvalues --    1.14291   1.15145   1.15344   1.15629   1.15767
 Alpha virt. eigenvalues --    1.16555   1.16772   1.18259   1.18611   1.19069
 Alpha virt. eigenvalues --    1.20593   1.21333   1.21753   1.22168   1.22296
 Alpha virt. eigenvalues --    1.22586   1.23763   1.24277   1.24886   1.25109
 Alpha virt. eigenvalues --    1.25434   1.26229   1.27024   1.27311   1.27834
 Alpha virt. eigenvalues --    1.28729   1.29051   1.30225   1.30647   1.31547
 Alpha virt. eigenvalues --    1.32207   1.32970   1.34008   1.34754   1.36805
 Alpha virt. eigenvalues --    1.38373   1.38945   1.40693   1.40885   1.41130
 Alpha virt. eigenvalues --    1.41578   1.42413   1.42753   1.43517   1.44496
 Alpha virt. eigenvalues --    1.44837   1.45442   1.45740   1.46305   1.47187
 Alpha virt. eigenvalues --    1.47962   1.48048   1.48905   1.50025   1.50536
 Alpha virt. eigenvalues --    1.51130   1.51794   1.52150   1.52403   1.52751
 Alpha virt. eigenvalues --    1.53019   1.53210   1.53656   1.54579   1.54825
 Alpha virt. eigenvalues --    1.55318   1.55818   1.56088   1.56890   1.57096
 Alpha virt. eigenvalues --    1.57357   1.57733   1.58343   1.58588   1.59223
 Alpha virt. eigenvalues --    1.59423   1.60198   1.60595   1.60928   1.61214
 Alpha virt. eigenvalues --    1.61897   1.62414   1.63270   1.63307   1.63555
 Alpha virt. eigenvalues --    1.64086   1.65408   1.65877   1.66202   1.66415
 Alpha virt. eigenvalues --    1.67120   1.68137   1.68321   1.68871   1.69430
 Alpha virt. eigenvalues --    1.69831   1.70813   1.71194   1.71736   1.72486
 Alpha virt. eigenvalues --    1.73483   1.74510   1.75136   1.75389   1.76807
 Alpha virt. eigenvalues --    1.77590   1.78019   1.79475   1.79732   1.80513
 Alpha virt. eigenvalues --    1.80875   1.81388   1.81677   1.83265   1.83890
 Alpha virt. eigenvalues --    1.84337   1.85669   1.87192   1.88111   1.88938
 Alpha virt. eigenvalues --    1.90077   1.90405   1.91018   1.91540   1.92514
 Alpha virt. eigenvalues --    1.92781   1.93306   1.95076   1.95828   1.95896
 Alpha virt. eigenvalues --    1.96751   1.98786   2.00579   2.01219   2.01803
 Alpha virt. eigenvalues --    2.02262   2.05083   2.06149   2.07652   2.08233
 Alpha virt. eigenvalues --    2.09190   2.09418   2.09784   2.11369   2.11577
 Alpha virt. eigenvalues --    2.13952   2.15012   2.15415   2.16124   2.20194
 Alpha virt. eigenvalues --    2.20985   2.21604   2.22757   2.26319   2.26703
 Alpha virt. eigenvalues --    2.29208   2.31218   2.31670   2.35214   2.37786
 Alpha virt. eigenvalues --    2.38086   2.38128   2.38490   2.38660   2.39222
 Alpha virt. eigenvalues --    2.39933   2.40868   2.40986   2.41185   2.41343
 Alpha virt. eigenvalues --    2.42117   2.42618   2.43037   2.43324   2.43431
 Alpha virt. eigenvalues --    2.43942   2.45147   2.45420   2.46427   2.47005
 Alpha virt. eigenvalues --    2.52443   2.54413   2.55611   2.55973   2.58925
 Alpha virt. eigenvalues --    2.62703   2.64772   2.65992   2.68888   2.69791
 Alpha virt. eigenvalues --    2.71048   2.72712   2.72961   2.73784   2.76991
 Alpha virt. eigenvalues --    2.77397   2.77951   2.79765   2.80249   2.82503
 Alpha virt. eigenvalues --    2.83473   2.95074   2.97144   3.00411   3.01340
 Alpha virt. eigenvalues --    3.02456   3.02737   3.11437   3.11669   3.12911
 Alpha virt. eigenvalues --    3.14336   3.16624   3.18346   3.19270   3.22416
 Alpha virt. eigenvalues --    3.25151   3.28233   3.30903   3.31819   3.36248
 Alpha virt. eigenvalues --    3.52329   3.61684   3.64691   3.78592   3.80516
          Condensed to atoms (all electrons):
 Mulliken charges:
               1
     1  C    0.579015
     2  C   -0.219215
     3  S    0.369620
     4  S    0.311242
     5  C    1.093676
     6  C    1.311497
     7  C    0.848150
     8  N   -1.052575
     9  S    0.561496
    10  C   -1.207754
    11  N   -0.134832
    12  C   -1.257993
    13  N   -0.106606
    14  C   -0.915957
    15  N   -0.163421
    16  C    0.517915
    17  C    0.077365
    18  S    0.406467
    19  S    0.322666
    20  C    0.998430
    21  C    1.171023
    22  C    0.922783
    23  N   -1.137529
    24  S    0.540260
    25  C   -1.147411
    26  N   -0.143770
    27  C   -1.143274
    28  N   -0.153136
    29  C   -1.212773
    30  N   -0.035358
 Sum of Mulliken charges =  -0.00000
 Mulliken charges with hydrogens summed into heavy atoms:
               1
     1  C    0.579015
     2  C   -0.219215
     3  S    0.369620
     4  S    0.311242
     5  C    1.093676
     6  C    1.311497
     7  C    0.848150
     8  N   -1.052575
     9  S    0.561496
    10  C   -1.207754
    11  N   -0.134832
    12  C   -1.257993
    13  N   -0.106606
    14  C   -0.915957
    15  N   -0.163421
    16  C    0.517915
    17  C    0.077365
    18  S    0.406467
    19  S    0.322666
    20  C    0.998430
    21  C    1.171023
    22  C    0.922783
    23  N   -1.137529
    24  S    0.540260
    25  C   -1.147411
    26  N   -0.143770
    27  C   -1.143274
    28  N   -0.153136
    29  C   -1.212773
    30  N   -0.035358
 Electronic spatial extent (au):  <R**2>=          48730.0465
 Charge=              0.0000 electrons
 Dipole moment (field-independent basis, Debye):
    X=              5.3736    Y=              1.2165    Z=             -2.8225  Tot=              6.1905

 Test job not archived.
 1\1\GINC-CHIMERA-NODE31\SP\RM05\Gen\C16N8S6\CONNORNM\19-Jan-2019\0\\#T
  M05/Gen test Massage SCF=(fermi,maxcyc=60)\\M05 opt\\0,1\C,0,0.414216
 02,0.17468871,-0.91597917\C,0,0.43537995,-1.19523004,-0.53036104\S,0,0
 .49478556,1.53873603,0.18919054\S,0,0.51510817,-1.75258503,1.14820596\
 C,0,-0.35493031,0.86656835,1.59286274\C,0,-0.34383346,-0.43891889,1.97
 131217\C,0,0.39299712,0.2689619,-2.29291982\N,0,0.42844569,-2.0910391,
 -1.48709406\S,0,0.42791377,-1.32789427,-2.96646101\C,0,-1.04584832,1.8
 5366153,2.35402568\N,0,-1.57331786,2.69733792,2.95500742\C,0,-1.024690
 9,-0.86892424,3.14837227\N,0,-1.54027783,-1.25869787,4.11438095\C,0,0.
 3790669,1.43649612,-3.0940679\N,0,0.37681812,2.38408135,-3.76724922\C,
 0,0.43593229,0.5468927,8.84409622\C,0,0.56346734,1.1319515,10.13532341
 \S,0,0.34590485,-1.17777797,8.51863844\S,0,0.62054069,0.20588531,11.64
 321345\C,0,-0.49967561,-1.73637106,9.97366061\C,0,-0.38763812,-1.18634
 81,11.21162927\C,0,0.46568866,1.53575964,7.88151638\N,0,0.67829255,2.4
 3609579,10.19763618\S,0,0.67294514,3.0711674,8.65894441\C,0,-1.3086532
 8,-2.88690324,9.74361607\N,0,-1.93520612,-3.83828371,9.51231594\C,0,-1
 .07719436,-1.7435273,12.32877092\N,0,-1.59682238,-2.18103807,13.271902
 5\C,0,0.38144441,1.39621823,6.47488937\N,0,0.32307226,1.29960737,5.318
 01645\\Version=AS64L-G09RevD.01\HF=-3448.3591576\RMSD=8.522e-09\Dipole
 =2.1141346,0.4785918,-1.1104708\Quadrupole=14.8049909,1.6852294,-16.49
 02203,-5.8397935,31.5202518,35.1728106\PG=C01 [X(C16N8S6)]\\@


 ARTHROPOD AXIOM: A COMPUTER SYSTEM IS LIKE A SPIDER'S WEB.
 YOU CANNOT PULL ON ONE END WITHOUT MAKING THE OTHER END MOVE.
     -- GREG WETTSTEIN
 Job cpu time:       0 days  9 hours 11 minutes 10.9 seconds.
 File lengths (MBytes):  RWF=    225 Int=      0 D2E=      0 Chk=     19 Scr=      1
 Normal termination of Gaussian 09 at Sat Jan 19 12:29:23 2019.
