 Entering Gaussian System, Link 0=/data/szalewicgrp/connornm/opt/Gaussian/g09-M05-par/g09/g09
 AtFile(1): blind-aug.gbs
 Initial command:
 /data/szalewicgrp/connornm/opt/Gaussian/g09-M05-par/g09/l1.exe "/scratch/local/Gau-36472.inp" -scrdir="/scratch/local/"
 Entering Link 1 = /data/szalewicgrp/connornm/opt/Gaussian/g09-M05-par/g09/l1.exe PID=     36473.
  
 Copyright (c) 1988,1990,1992,1993,1995,1998,2003,2009,2013,
            Gaussian, Inc.  All Rights Reserved.
  
 This is part of the Gaussian(R) 09 program.  It is based on
 the Gaussian(R) 03 system (copyright 2003, Gaussian, Inc.),
 the Gaussian(R) 98 system (copyright 1998, Gaussian, Inc.),
 the Gaussian(R) 94 system (copyright 1995, Gaussian, Inc.),
 the Gaussian 92(TM) system (copyright 1992, Gaussian, Inc.),
 the Gaussian 90(TM) system (copyright 1990, Gaussian, Inc.),
 the Gaussian 88(TM) system (copyright 1988, Gaussian, Inc.),
 the Gaussian 86(TM) system (copyright 1986, Carnegie Mellon
 University), and the Gaussian 82(TM) system (copyright 1983,
 Carnegie Mellon University). Gaussian is a federally registered
 trademark of Gaussian, Inc.
  
 This software contains proprietary and confidential information,
 including trade secrets, belonging to Gaussian, Inc.
  
 This software is provided under written license and may be
 used, copied, transmitted, or stored only in accord with that
 written license.
  
 The following legend is applicable only to US Government
 contracts under FAR:
  
                    RESTRICTED RIGHTS LEGEND
  
 Use, reproduction and disclosure by the US Government is
 subject to restrictions as set forth in subparagraphs (a)
 and (c) of the Commercial Computer Software - Restricted
 Rights clause in FAR 52.227-19.
  
 Gaussian, Inc.
 340 Quinnipiac St., Bldg. 40, Wallingford CT 06492
  
  
 ---------------------------------------------------------------
 Warning -- This program may not be used in any manner that
 competes with the business of Gaussian, Inc. or will provide
 assistance to any competitor of Gaussian, Inc.  The licensee
 of this program is prohibited from giving any competitor of
 Gaussian, Inc. access to this program.  By using this program,
 the user acknowledges that Gaussian, Inc. is engaged in the
 business of creating and licensing software in the field of
 computational chemistry and represents and warrants to the
 licensee that it is not a competitor of Gaussian, Inc. and that
 it will not use this program in any manner prohibited above.
 ---------------------------------------------------------------
  

 Cite this work as:
 Gaussian 09, Revision D.01,
 M. J. Frisch, G. W. Trucks, H. B. Schlegel, G. E. Scuseria, 
 M. A. Robb, J. R. Cheeseman, G. Scalmani, V. Barone, B. Mennucci, 
 G. A. Petersson, H. Nakatsuji, M. Caricato, X. Li, H. P. Hratchian, 
 A. F. Izmaylov, J. Bloino, G. Zheng, J. L. Sonnenberg, M. Hada, 
 M. Ehara, K. Toyota, R. Fukuda, J. Hasegawa, M. Ishida, T. Nakajima, 
 Y. Honda, O. Kitao, H. Nakai, T. Vreven, J. A. Montgomery, Jr., 
 J. E. Peralta, F. Ogliaro, M. Bearpark, J. J. Heyd, E. Brothers, 
 K. N. Kudin, V. N. Staroverov, T. Keith, R. Kobayashi, J. Normand, 
 K. Raghavachari, A. Rendell, J. C. Burant, S. S. Iyengar, J. Tomasi, 
 M. Cossi, N. Rega, J. M. Millam, M. Klene, J. E. Knox, J. B. Cross, 
 V. Bakken, C. Adamo, J. Jaramillo, R. Gomperts, R. E. Stratmann, 
 O. Yazyev, A. J. Austin, R. Cammi, C. Pomelli, J. W. Ochterski, 
 R. L. Martin, K. Morokuma, V. G. Zakrzewski, G. A. Voth, 
 P. Salvador, J. J. Dannenberg, S. Dapprich, A. D. Daniels, 
 O. Farkas, J. B. Foresman, J. V. Ortiz, J. Cioslowski, 
 and D. J. Fox, Gaussian, Inc., Wallingford CT, 2013.
 
 ******************************************
 Gaussian 09:  AS64L-G09RevD.01 24-Apr-2013
                19-Jan-2019 
 ******************************************
 %Chk=BLIND01681_mB
 %Mem=1GB
 %NProcShared=48
 Will use up to   48 processors via shared memory.
 ---------------------------------------------
 #T M05/Gen test Massage SCF=(fermi,maxcyc=60)
 ---------------------------------------------
 -------
 M05 opt
 -------
 Symbolic Z-matrix:
 Charge =  0 Multiplicity = 1
 6                    -0.64531  -0.66381   5.5652 
 6                    -1.28488   0.30556   6.38806 
 16                    0.83646  -0.40179   4.65733 
 16                   -0.66552   1.94202   6.65822 
 6                     1.67729   0.72974   5.73286 
 6                     1.07887   1.65896   6.52412 
 6                    -1.40327  -1.81692   5.53172 
 7                    -2.41952  -0.03424   6.9493 
 16                   -2.82891  -1.5807    6.4891 
 6                     3.09626   0.61443   5.6672 
 7                     4.24813   0.49931   5.5616 
 6                     1.85231   2.55566   7.3189 
 7                     2.44257   3.32496   7.95975 
 6                    -1.14424  -3.01918   4.82983 
 7                    -0.95228  -4.00998   4.25315 
 
                    Distance matrix (angstroms):
                    1          2          3          4          5
     1  C    0.000000
     2  C    1.423315   0.000000
     3  S    1.757418   2.827694   0.000000
     4  S    2.825849   1.770477   3.428253   0.000000
     5  C    2.713774   3.063280   1.773167   2.795470   0.000000
     6  C    3.047557   2.727187   2.791121   1.772288   1.359281
     7  C    1.380327   2.291783   2.789903   3.992857   4.001979
     8  N    2.336642   1.310672   3.998700   2.658358   4.341342
     9  S    2.542129   2.439721   4.263822   4.137445   5.120151
    10  C    3.955208   4.450782   2.675676   4.110426   1.425163
    11  N    5.029770   5.597745   3.642685   5.237162   2.586817
    12  C    4.436049   3.971317   4.106384   2.674416   2.424897
    13  N    5.583831   5.047859   5.232040   3.642352   3.504263
    14  C    2.517432   3.674472   3.286888   5.309014   4.778168
    15  N    3.607292   4.826214   4.047461   6.425950   5.618639
                    6          7          8          9         10
     6  C    0.000000
     7  C    4.384939   0.000000
     8  N    3.909794   2.494036   0.000000
     9  S    5.076167   1.733444   1.664607   0.000000
    10  C    2.428007   5.116215   5.699860   6.371958   0.000000
    11  N    3.509330   6.107712   6.831389   7.434461   1.162408
    12  C    1.426163   5.736923   5.009263   6.301738   2.836178
    13  N    2.587713   6.864751   5.995430   7.349618   3.609722
    14  C    5.449573   1.416040   3.876636   2.767765   5.646781
    15  N    6.435818   2.578302   5.022796   3.797715   6.306769
                   11         12         13         14         15
    11  N    0.000000
    12  C    3.613393   0.000000
    13  N    4.122555   1.162293   0.000000
    14  C    6.480188   6.800997   7.931563   0.000000
    15  N    7.006418   7.769948   8.891861   1.162367   0.000000
 Symmetry turned off by external request.
 Framework group  C1[X(C8N4S3)]
 Deg. of freedom    39
 Rotational constants (GHZ):      0.7722167      0.3388923      0.2463240
   357 basis functions,   759 primitive gaussians,   387 cartesian basis functions
    62 alpha electrons       62 beta electrons
       nuclear repulsion energy      1166.1400396113 Hartrees.
 IMHF & INEx in M05                  599485                  400514
 NAtoms=   15 NActive=   15 NUniq=   15 SFac= 1.00D+00 NAtFMM=   60 NAOKFM=F Big=F
 PrsmSu:  requested number of processors reduced to:  34 ShMem   1 Linda.
 ExpMin= 3.99D-02 ExpMax= 1.11D+05 ExpMxC= 1.07D+03 IAcc=3 IRadAn=         5 AccDes= 0.00D+00
 Harris functional with IExCor= 1009 and IRadAn=       5 diagonalized for initial guess.
 HarFok:  IExCor= 1009 AccDes= 0.00D+00 IRadAn=         5 IDoV= 1 UseB2=F ITyADJ=14
 ICtDFT=  3500011 ScaDFX=  1.000000  1.000000  1.000000  1.000000
 FoFCou: FMM=F IPFlag=           0 FMFlag=      100000 FMFlg1=           0
         NFxFlg=           0 DoJE=T BraDBF=F KetDBF=T FulRan=T
         wScrn=  0.000000 ICntrl=     500 IOpCl=  0 I1Cent=   200000004 NGrid=           0
         NMat0=    1 NMatS0=      1 NMatT0=    0 NMatD0=    1 NMtDS0=    0 NMtDT0=    0
 Symmetry not used in FoFCou.
 SCF Done:  E(RM05) =  -1724.76149102     A.U. after   17 cycles
            NFock= 17  Conv=0.51D-08     -V/T= 2.0061

 **********************************************************************

            Population analysis using the SCF density.

 **********************************************************************

 Alpha  occ. eigenvalues --  -90.56428 -90.53636 -90.53183 -15.08621 -15.05415
 Alpha  occ. eigenvalues --  -15.04969 -15.04934 -10.89945 -10.89827 -10.89736
 Alpha  occ. eigenvalues --  -10.88752 -10.87414 -10.84945 -10.84332 -10.84311
 Alpha  occ. eigenvalues --   -8.57524  -8.55036  -8.54610  -6.40061  -6.39711
 Alpha  occ. eigenvalues --   -6.39399  -6.37597  -6.37283  -6.37163  -6.36854
 Alpha  occ. eigenvalues --   -6.36822  -6.36393  -1.20533  -1.12896  -1.12138
 Alpha  occ. eigenvalues --   -1.11338  -1.07644  -1.03801  -0.98824  -0.97396
 Alpha  occ. eigenvalues --   -0.88003  -0.84555  -0.82236  -0.73687  -0.71296
 Alpha  occ. eigenvalues --   -0.67838  -0.64612  -0.59530  -0.57258  -0.55386
 Alpha  occ. eigenvalues --   -0.53384  -0.52647  -0.52243  -0.51890  -0.50883
 Alpha  occ. eigenvalues --   -0.50387  -0.49356  -0.48216  -0.46804  -0.46075
 Alpha  occ. eigenvalues --   -0.45933  -0.45296  -0.43720  -0.43113  -0.39488
 Alpha  occ. eigenvalues --   -0.37627  -0.33120
 Alpha virt. eigenvalues --   -0.09329  -0.08268  -0.02099  -0.01261  -0.00502
 Alpha virt. eigenvalues --   -0.00361   0.00153   0.01255   0.02020   0.02231
 Alpha virt. eigenvalues --    0.02395   0.02956   0.03189   0.04002   0.04278
 Alpha virt. eigenvalues --    0.04487   0.05428   0.06008   0.06299   0.07067
 Alpha virt. eigenvalues --    0.07270   0.07527   0.07707   0.08288   0.08491
 Alpha virt. eigenvalues --    0.09376   0.10091   0.10396   0.10524   0.10814
 Alpha virt. eigenvalues --    0.11289   0.11395   0.11980   0.12527   0.13230
 Alpha virt. eigenvalues --    0.13488   0.13939   0.14455   0.15076   0.15192
 Alpha virt. eigenvalues --    0.15901   0.16275   0.16680   0.16815   0.17190
 Alpha virt. eigenvalues --    0.17360   0.17841   0.18615   0.19046   0.19564
 Alpha virt. eigenvalues --    0.19863   0.20236   0.20689   0.20944   0.21271
 Alpha virt. eigenvalues --    0.21879   0.22204   0.22585   0.22822   0.23616
 Alpha virt. eigenvalues --    0.23756   0.24120   0.24370   0.24700   0.25262
 Alpha virt. eigenvalues --    0.25693   0.25851   0.26220   0.26625   0.26744
 Alpha virt. eigenvalues --    0.27069   0.28333   0.29193   0.29666   0.30367
 Alpha virt. eigenvalues --    0.30712   0.32418   0.33457   0.34153   0.34713
 Alpha virt. eigenvalues --    0.34950   0.35471   0.36120   0.36936   0.37594
 Alpha virt. eigenvalues --    0.38153   0.39579   0.40729   0.41167   0.42049
 Alpha virt. eigenvalues --    0.42118   0.43485   0.44136   0.45737   0.45986
 Alpha virt. eigenvalues --    0.46962   0.48556   0.49576   0.50235   0.50599
 Alpha virt. eigenvalues --    0.51525   0.51859   0.53526   0.54167   0.54425
 Alpha virt. eigenvalues --    0.54702   0.55466   0.55729   0.55836   0.56451
 Alpha virt. eigenvalues --    0.57768   0.58140   0.58557   0.59216   0.60314
 Alpha virt. eigenvalues --    0.60554   0.61102   0.61588   0.62106   0.62711
 Alpha virt. eigenvalues --    0.63718   0.64718   0.64952   0.66008   0.66559
 Alpha virt. eigenvalues --    0.67686   0.68190   0.68807   0.70106   0.70419
 Alpha virt. eigenvalues --    0.71049   0.72860   0.73469   0.73854   0.75370
 Alpha virt. eigenvalues --    0.75565   0.76457   0.77063   0.77553   0.77843
 Alpha virt. eigenvalues --    0.78246   0.79255   0.79760   0.79880   0.81109
 Alpha virt. eigenvalues --    0.81536   0.82547   0.83277   0.83957   0.84870
 Alpha virt. eigenvalues --    0.85699   0.85940   0.87126   0.87249   0.88405
 Alpha virt. eigenvalues --    0.88458   0.89344   0.89666   0.89831   0.90730
 Alpha virt. eigenvalues --    0.91173   0.91722   0.92828   0.93720   0.94368
 Alpha virt. eigenvalues --    0.95433   0.95564   0.97324   0.98744   0.99311
 Alpha virt. eigenvalues --    0.99847   1.01204   1.02845   1.03575   1.04751
 Alpha virt. eigenvalues --    1.05760   1.06746   1.08041   1.08541   1.09636
 Alpha virt. eigenvalues --    1.10234   1.11406   1.13198   1.13609   1.14402
 Alpha virt. eigenvalues --    1.15324   1.17103   1.18344   1.20284   1.20632
 Alpha virt. eigenvalues --    1.21610   1.22698   1.23936   1.24219   1.26559
 Alpha virt. eigenvalues --    1.27344   1.29753   1.30253   1.32271   1.34126
 Alpha virt. eigenvalues --    1.37310   1.40080   1.40257   1.41567   1.42728
 Alpha virt. eigenvalues --    1.43619   1.45024   1.46460   1.47272   1.49369
 Alpha virt. eigenvalues --    1.49822   1.50474   1.51641   1.51867   1.52331
 Alpha virt. eigenvalues --    1.53714   1.54192   1.55430   1.56137   1.56448
 Alpha virt. eigenvalues --    1.56789   1.58489   1.59724   1.60391   1.60514
 Alpha virt. eigenvalues --    1.62130   1.63281   1.64925   1.66029   1.67547
 Alpha virt. eigenvalues --    1.68613   1.69177   1.70471   1.71327   1.74151
 Alpha virt. eigenvalues --    1.76825   1.77078   1.79017   1.79376   1.81041
 Alpha virt. eigenvalues --    1.82958   1.85917   1.88149   1.89704   1.90608
 Alpha virt. eigenvalues --    1.91368   1.94486   1.95005   1.97395   2.00538
 Alpha virt. eigenvalues --    2.00826   2.05450   2.07037   2.08350   2.08475
 Alpha virt. eigenvalues --    2.10897   2.13936   2.18605   2.20233   2.24593
 Alpha virt. eigenvalues --    2.27645   2.30686   2.37027   2.37402   2.38001
 Alpha virt. eigenvalues --    2.38280   2.39370   2.39930   2.40470   2.42150
 Alpha virt. eigenvalues --    2.42560   2.43756   2.45057   2.51017   2.54996
 Alpha virt. eigenvalues --    2.61158   2.64128   2.68329   2.71896   2.73264
 Alpha virt. eigenvalues --    2.76310   2.78780   2.81840   2.94680   2.99730
 Alpha virt. eigenvalues --    3.01876   3.09943   3.11452   3.15939   3.17850
 Alpha virt. eigenvalues --    3.24293   3.27128   3.35293   3.59304   3.74894
          Condensed to atoms (all electrons):
 Mulliken charges:
               1
     1  C    0.620524
     2  C   -0.108975
     3  S    0.373526
     4  S    0.296377
     5  C    1.040632
     6  C    1.130703
     7  C    0.786901
     8  N   -1.082998
     9  S    0.557426
    10  C   -1.130084
    11  N   -0.168010
    12  C   -1.099486
    13  N   -0.180420
    14  C   -0.853120
    15  N   -0.182995
 Sum of Mulliken charges =  -0.00000
 Mulliken charges with hydrogens summed into heavy atoms:
               1
     1  C    0.620524
     2  C   -0.108975
     3  S    0.373526
     4  S    0.296377
     5  C    1.040632
     6  C    1.130703
     7  C    0.786901
     8  N   -1.082998
     9  S    0.557426
    10  C   -1.130084
    11  N   -0.168010
    12  C   -1.099486
    13  N   -0.180420
    14  C   -0.853120
    15  N   -0.182995
 Electronic spatial extent (au):  <R**2>=          19928.5961
 Charge=             -0.0000 electrons
 Dipole moment (field-independent basis, Debye):
    X=             -4.6555    Y=             -0.2392    Z=             -0.4626  Tot=              4.6846

 Test job not archived.
 1\1\GINC-CHIMERA-NODE11\SP\RM05\Gen\C8N4S3\CONNORNM\19-Jan-2019\0\\#T 
 M05/Gen test Massage SCF=(fermi,maxcyc=60)\\M05 opt\\0,1\C,0,-0.645311
 9,-0.66380624,5.56519798\C,0,-1.28488077,0.30556144,6.38806165\S,0,0.8
 3645925,-0.4017915,4.65733281\S,0,-0.66551629,1.94201841,6.65821823\C,
 0,1.67729111,0.72974189,5.73285875\C,0,1.07887473,1.65896382,6.5241162
 9\C,0,-1.40327429,-1.81692188,5.53172331\N,0,-2.4195181,-0.03424475,6.
 94930127\S,0,-2.82891421,-1.58070202,6.48910387\C,0,3.09626292,0.61442
 818,5.6671976\N,0,4.24812645,0.49930826,5.56160005\C,0,1.85231033,2.55
 56585,7.31889799\N,0,2.44257258,3.32495922,7.95975135\C,0,-1.14424029,
 -3.0191764,4.82983022\N,0,-0.95227766,-4.00997602,4.253148\\Version=AS
 64L-G09RevD.01\HF=-1724.761491\RMSD=5.109e-09\Dipole=-1.8316304,-0.094
 0995,-0.1819949\Quadrupole=-1.0485404,-1.8341708,2.8827112,-3.7819176,
 -23.1886923,-10.7929671\PG=C01 [X(C8N4S3)]\\@


 EVERY WORD THAT YOU WRITE IS A BLOW THAT SMITES THE DEVIL.
     -- ST. BERNARD OF CLAIRVAUX
 Job cpu time:       0 days  1 hours 36 minutes 53.1 seconds.
 File lengths (MBytes):  RWF=     58 Int=      0 D2E=      0 Chk=      6 Scr=      1
 Normal termination of Gaussian 09 at Sat Jan 19 11:08:40 2019.
