 Entering Gaussian System, Link 0=/data/szalewicgrp/connornm/opt/Gaussian/g09-M05-par/g09/g09
 AtFile(1): blind-aug.gbs
 Initial command:
 /data/szalewicgrp/connornm/opt/Gaussian/g09-M05-par/g09/l1.exe "/scratch/local/Gau-27560.inp" -scrdir="/scratch/local/"
 Entering Link 1 = /data/szalewicgrp/connornm/opt/Gaussian/g09-M05-par/g09/l1.exe PID=     27561.
  
 Copyright (c) 1988,1990,1992,1993,1995,1998,2003,2009,2013,
            Gaussian, Inc.  All Rights Reserved.
  
 This is part of the Gaussian(R) 09 program.  It is based on
 the Gaussian(R) 03 system (copyright 2003, Gaussian, Inc.),
 the Gaussian(R) 98 system (copyright 1998, Gaussian, Inc.),
 the Gaussian(R) 94 system (copyright 1995, Gaussian, Inc.),
 the Gaussian 92(TM) system (copyright 1992, Gaussian, Inc.),
 the Gaussian 90(TM) system (copyright 1990, Gaussian, Inc.),
 the Gaussian 88(TM) system (copyright 1988, Gaussian, Inc.),
 the Gaussian 86(TM) system (copyright 1986, Carnegie Mellon
 University), and the Gaussian 82(TM) system (copyright 1983,
 Carnegie Mellon University). Gaussian is a federally registered
 trademark of Gaussian, Inc.
  
 This software contains proprietary and confidential information,
 including trade secrets, belonging to Gaussian, Inc.
  
 This software is provided under written license and may be
 used, copied, transmitted, or stored only in accord with that
 written license.
  
 The following legend is applicable only to US Government
 contracts under FAR:
  
                    RESTRICTED RIGHTS LEGEND
  
 Use, reproduction and disclosure by the US Government is
 subject to restrictions as set forth in subparagraphs (a)
 and (c) of the Commercial Computer Software - Restricted
 Rights clause in FAR 52.227-19.
  
 Gaussian, Inc.
 340 Quinnipiac St., Bldg. 40, Wallingford CT 06492
  
  
 ---------------------------------------------------------------
 Warning -- This program may not be used in any manner that
 competes with the business of Gaussian, Inc. or will provide
 assistance to any competitor of Gaussian, Inc.  The licensee
 of this program is prohibited from giving any competitor of
 Gaussian, Inc. access to this program.  By using this program,
 the user acknowledges that Gaussian, Inc. is engaged in the
 business of creating and licensing software in the field of
 computational chemistry and represents and warrants to the
 licensee that it is not a competitor of Gaussian, Inc. and that
 it will not use this program in any manner prohibited above.
 ---------------------------------------------------------------
  

 Cite this work as:
 Gaussian 09, Revision D.01,
 M. J. Frisch, G. W. Trucks, H. B. Schlegel, G. E. Scuseria, 
 M. A. Robb, J. R. Cheeseman, G. Scalmani, V. Barone, B. Mennucci, 
 G. A. Petersson, H. Nakatsuji, M. Caricato, X. Li, H. P. Hratchian, 
 A. F. Izmaylov, J. Bloino, G. Zheng, J. L. Sonnenberg, M. Hada, 
 M. Ehara, K. Toyota, R. Fukuda, J. Hasegawa, M. Ishida, T. Nakajima, 
 Y. Honda, O. Kitao, H. Nakai, T. Vreven, J. A. Montgomery, Jr., 
 J. E. Peralta, F. Ogliaro, M. Bearpark, J. J. Heyd, E. Brothers, 
 K. N. Kudin, V. N. Staroverov, T. Keith, R. Kobayashi, J. Normand, 
 K. Raghavachari, A. Rendell, J. C. Burant, S. S. Iyengar, J. Tomasi, 
 M. Cossi, N. Rega, J. M. Millam, M. Klene, J. E. Knox, J. B. Cross, 
 V. Bakken, C. Adamo, J. Jaramillo, R. Gomperts, R. E. Stratmann, 
 O. Yazyev, A. J. Austin, R. Cammi, C. Pomelli, J. W. Ochterski, 
 R. L. Martin, K. Morokuma, V. G. Zakrzewski, G. A. Voth, 
 P. Salvador, J. J. Dannenberg, S. Dapprich, A. D. Daniels, 
 O. Farkas, J. B. Foresman, J. V. Ortiz, J. Cioslowski, 
 and D. J. Fox, Gaussian, Inc., Wallingford CT, 2013.
 
 ******************************************
 Gaussian 09:  AS64L-G09RevD.01 24-Apr-2013
                20-Jan-2019 
 ******************************************
 %Chk=BLIND01328
 %Mem=1GB
 %NProcShared=48
 Will use up to   48 processors via shared memory.
 ---------------------------------------------
 #T M05/Gen test Massage SCF=(fermi,maxcyc=60)
 ---------------------------------------------
 -------
 M05 opt
 -------
 Symbolic Z-matrix:
 Charge =  0 Multiplicity = 1
 6                     0.46144  -0.90852  -0.05265 
 6                     0.99816  -0.05142   0.94892 
 16                   -0.26109  -0.37277  -1.56243 
 16                    0.99538   1.71618   0.84807 
 6                    -0.98384   1.16211  -1.04675 
 6                    -0.48242   1.98893  -0.09146 
 6                     0.65904  -2.22583   0.30922 
 7                     1.55636  -0.61748   1.99096 
 16                    1.50328  -2.27269   1.82246 
 6                    -2.16107   1.49906  -1.77591 
 7                    -3.10232   1.74211  -2.41323 
 6                    -1.11807   3.2281    0.21569 
 7                    -1.58573   4.25933   0.47797 
 6                     0.29341  -3.39637  -0.39882 
 7                     0.00895  -4.3676   -0.97056 
 6                     0.30585   0.90236   7.51628 
 6                     0.53331   0.74319   6.1203 
 16                   -1.00761   0.16156   8.41881 
 16                   -0.46439  -0.26517   5.06087 
 6                    -1.1925   -1.36025   7.52771 
 6                    -0.9776   -1.52595   6.1958 
 6                     1.2306    1.78336   8.0397 
 7                     1.52584   1.41566   5.59064 
 16                    2.26112   2.34148   6.76245 
 6                    -1.64771  -2.43537   8.34501 
 7                    -2.04216  -3.27429   9.04631 
 6                    -1.2018   -2.78578   5.56611 
 7                    -1.39921  -3.7851    5.00636 
 6                     1.3589    2.23174   9.37673 
 7                     1.47313   2.61752   10.46724 
 
                    Distance matrix (angstroms):
                    1          2          3          4          5
     1  C    0.000000
     2  C    1.423315   0.000000
     3  S    1.757418   2.827694   0.000000
     4  S    2.825849   1.770477   3.428253   0.000000
     5  C    2.713774   3.063280   1.773167   2.795470   0.000000
     6  C    3.047557   2.727187   2.791121   1.772288   1.359281
     7  C    1.380327   2.291783   2.789903   3.992857   4.001979
     8  N    2.336642   1.310672   3.998700   2.658358   4.341342
     9  S    2.542129   2.439721   4.263822   4.137445   5.120151
    10  C    3.955208   4.450782   2.675676   4.110426   1.425163
    11  N    5.029770   5.597745   3.642685   5.237162   2.586817
    12  C    4.436049   3.971317   4.106384   2.674416   2.424897
    13  N    5.583831   5.047859   5.232040   3.642352   3.504263
    14  C    2.517432   3.674472   3.286888   5.309014   4.778168
    15  N    3.607292   4.826214   4.047461   6.425950   5.618639
    16  C    7.784098   6.672269   9.185330   6.752980   8.663501
    17  C    6.390511   5.252682   7.803893   5.381136   7.337838
    18  S    8.664226   7.737422  10.023366   7.984038   9.518323
    19  S    5.236334   4.369542   6.627294   4.878974   6.293650
    20  C    7.771846   7.056387   9.190941   7.672606   8.940208
    21  C    6.441678   5.797208   7.876124   6.557611   7.725299
    22  C    8.562940   7.328000   9.953636   7.195786   9.373008
    23  N    6.195285   4.896570   7.586703   4.781602   7.100550
    24  S    7.761892   6.412347   9.112207   6.080542   8.538403
    25  C    8.792077   8.208902  10.214425   8.968025  10.079080
    26  N    9.729133   9.230286  11.141651  10.066905  11.075720
    27  C    6.153132   5.799572   7.584438   6.881510   7.704759
    28  N    6.109861   6.012537   7.489217   7.299968   7.828639
    29  C    9.978976   8.739050  11.361034   8.551960  10.736925
    30  N   11.141128   9.896838  12.516487   9.673118  11.862845
                    6          7          8          9         10
     6  C    0.000000
     7  C    4.384939   0.000000
     8  N    3.909794   2.494036   0.000000
     9  S    5.076167   1.733444   1.664607   0.000000
    10  C    2.428007   5.116215   5.699860   6.371958   0.000000
    11  N    3.509330   6.107712   6.831389   7.434461   1.162408
    12  C    1.426163   5.736923   5.009263   6.301738   2.836178
    13  N    2.587713   6.864751   5.995430   7.349618   3.609722
    14  C    5.449573   1.416040   3.876636   2.767765   5.646781
    15  N    6.435818   2.578302   5.022796   3.797715   6.306769
    16  C    7.725260   7.864604   5.865393   6.628296   9.632578
    17  C    6.416347   6.526832   4.466488   5.339267   8.377422
    18  S    8.720075   8.616425   6.964057   7.466050  10.346580
    19  S    5.623860   5.261604   3.692145   4.288256   7.261741
    20  C    8.353024   7.502277   6.226045   6.375714   9.781171
    21  C    7.220054   6.149819   4.992693   5.083157   8.608107
    22  C    8.312183   8.727003   6.515934   7.428319  10.388960
    23  N    6.053762   6.473426   4.134289   5.272916   8.238108
    24  S    7.391033   8.066671   5.658558   6.802087   9.652414
    25  C    9.597208   8.362956   7.344715   7.245613  10.870901
    26  N   10.659882   9.205027   8.353801   8.109090  11.828760
    27  C    7.437976   5.604573   5.009065   4.647114   8.554849
    28  N    7.756784   5.360122   5.278437   4.566080   8.631459
    29  C    9.648628  10.128156   7.918757   8.796464  11.717871
    30  N   10.756650  11.283010   9.073016   9.932140  12.820036
                   11         12         13         14         15
    11  N    0.000000
    12  C    3.613393   0.000000
    13  N    4.122555   1.162293   0.000000
    14  C    6.480188   6.800997   7.931563   0.000000
    15  N    7.006418   7.769948   8.891861   1.162367   0.000000
    16  C   10.531660   7.793281   8.024030   9.007108   9.994347
    17  C    9.329347   6.615609   6.977781   7.726087   8.756447
    18  S   11.145355   8.758255   8.954484   9.596983  10.474103
    19  S    8.176186   6.008833   6.536934   6.339313   7.309725
    20  C   10.587464   8.632742   9.024032   8.317677   9.094410
    21  C    9.450396   7.640842   8.156765   6.971583   7.772059
    22  C   11.315456   8.295701   8.440488   9.945679  10.977771
    23  N    9.251399   6.258223   6.626291   7.781273   8.876736
    24  S   10.645130   7.420587   7.613873   9.385021  10.482533
    25  C   11.632154   9.921763  10.330209   9.008115   9.657011
    26  N   12.554252  11.005224  11.418414   9.730380  10.282993
    27  C    9.369294   8.049898   8.698860   6.179720   6.833456
    28  N    9.407496   8.497918   9.233306   5.677334   6.168127
    29  C   12.615281   9.542159   9.590091  11.330152  12.346664
    30  N   13.696995  10.591579  10.575336  12.475178  13.481808
                   16         17         18         19         20
    16  C    0.000000
    17  C    1.423315   0.000000
    18  S    1.757418   2.827694   0.000000
    19  S    2.825849   1.770477   3.428253   0.000000
    20  C    2.713774   3.063280   1.773167   2.795470   0.000000
    21  C    3.047557   2.727187   2.791121   1.772288   1.359281
    22  C    1.380327   2.291783   2.789903   3.992857   4.001979
    23  N    2.336642   1.310672   3.998700   2.658358   4.341342
    24  S    2.542129   2.439721   4.263822   4.137445   5.120151
    25  C    3.955208   4.450782   2.675676   4.110426   1.425163
    26  N    5.029770   5.597745   3.642685   5.237162   2.586817
    27  C    4.436049   3.971317   4.106384   2.674416   2.424897
    28  N    5.583831   5.047859   5.232040   3.642352   3.504263
    29  C    2.517432   3.674472   3.286888   5.309014   4.778168
    30  N    3.607292   4.826214   4.047461   6.425950   5.618639
                   21         22         23         24         25
    21  C    0.000000
    22  C    4.384939   0.000000
    23  N    3.909794   2.494036   0.000000
    24  S    5.076167   1.733444   1.664607   0.000000
    25  C    2.428007   5.116215   5.699860   6.371958   0.000000
    26  N    3.509330   6.107712   6.831389   7.434461   1.162408
    27  C    1.426163   5.736923   5.009263   6.301738   2.836178
    28  N    2.587713   6.864751   5.995430   7.349618   3.609722
    29  C    5.449573   1.416040   3.876636   2.767765   5.646781
    30  N    6.435818   2.578302   5.022796   3.797715   6.306769
                   26         27         28         29         30
    26  N    0.000000
    27  C    3.613393   0.000000
    28  N    4.122555   1.162293   0.000000
    29  C    6.480188   6.800997   7.931563   0.000000
    30  N    7.006418   7.769948   8.891861   1.162367   0.000000
 Symmetry turned off by external request.
 Framework group  C1[X(C16N8S6)]
 Deg. of freedom    84
 Rotational constants (GHZ):      0.1627717      0.0611409      0.0520708
   714 basis functions,  1518 primitive gaussians,   774 cartesian basis functions
   124 alpha electrons      124 beta electrons
       nuclear repulsion energy      3423.7564859945 Hartrees.
 IMHF & INEx in M05                  599485                  400514
 NAtoms=   30 NActive=   30 NUniq=   30 SFac= 1.00D+00 NAtFMM=   60 NAOKFM=F Big=F
 PrsmSu:  requested number of processors reduced to:  26 ShMem   1 Linda.
 ExpMin= 3.99D-02 ExpMax= 1.11D+05 ExpMxC= 1.07D+03 IAcc=3 IRadAn=         5 AccDes= 0.00D+00
 Harris functional with IExCor= 1009 and IRadAn=       5 diagonalized for initial guess.
 HarFok:  IExCor= 1009 AccDes= 0.00D+00 IRadAn=         5 IDoV= 1 UseB2=F ITyADJ=14
 ICtDFT=  3500011 ScaDFX=  1.000000  1.000000  1.000000  1.000000
 FoFCou: FMM=F IPFlag=           0 FMFlag=      100000 FMFlg1=           0
         NFxFlg=           0 DoJE=T BraDBF=F KetDBF=T FulRan=T
         wScrn=  0.000000 ICntrl=     500 IOpCl=  0 I1Cent=   200000004 NGrid=           0
         NMat0=    1 NMatS0=      1 NMatT0=    0 NMatD0=    1 NMtDS0=    0 NMtDT0=    0
 Symmetry not used in FoFCou.
