 Entering Gaussian System, Link 0=/data/szalewicgrp/connornm/opt/Gaussian/g09-M05-par/g09/g09
 AtFile(1): blind-aug.gbs
 Initial command:
 /data/szalewicgrp/connornm/opt/Gaussian/g09-M05-par/g09/l1.exe "/scratch/local/Gau-9402.inp" -scrdir="/scratch/local/"
 Entering Link 1 = /data/szalewicgrp/connornm/opt/Gaussian/g09-M05-par/g09/l1.exe PID=      9403.
  
 Copyright (c) 1988,1990,1992,1993,1995,1998,2003,2009,2013,
            Gaussian, Inc.  All Rights Reserved.
  
 This is part of the Gaussian(R) 09 program.  It is based on
 the Gaussian(R) 03 system (copyright 2003, Gaussian, Inc.),
 the Gaussian(R) 98 system (copyright 1998, Gaussian, Inc.),
 the Gaussian(R) 94 system (copyright 1995, Gaussian, Inc.),
 the Gaussian 92(TM) system (copyright 1992, Gaussian, Inc.),
 the Gaussian 90(TM) system (copyright 1990, Gaussian, Inc.),
 the Gaussian 88(TM) system (copyright 1988, Gaussian, Inc.),
 the Gaussian 86(TM) system (copyright 1986, Carnegie Mellon
 University), and the Gaussian 82(TM) system (copyright 1983,
 Carnegie Mellon University). Gaussian is a federally registered
 trademark of Gaussian, Inc.
  
 This software contains proprietary and confidential information,
 including trade secrets, belonging to Gaussian, Inc.
  
 This software is provided under written license and may be
 used, copied, transmitted, or stored only in accord with that
 written license.
  
 The following legend is applicable only to US Government
 contracts under FAR:
  
                    RESTRICTED RIGHTS LEGEND
  
 Use, reproduction and disclosure by the US Government is
 subject to restrictions as set forth in subparagraphs (a)
 and (c) of the Commercial Computer Software - Restricted
 Rights clause in FAR 52.227-19.
  
 Gaussian, Inc.
 340 Quinnipiac St., Bldg. 40, Wallingford CT 06492
  
  
 ---------------------------------------------------------------
 Warning -- This program may not be used in any manner that
 competes with the business of Gaussian, Inc. or will provide
 assistance to any competitor of Gaussian, Inc.  The licensee
 of this program is prohibited from giving any competitor of
 Gaussian, Inc. access to this program.  By using this program,
 the user acknowledges that Gaussian, Inc. is engaged in the
 business of creating and licensing software in the field of
 computational chemistry and represents and warrants to the
 licensee that it is not a competitor of Gaussian, Inc. and that
 it will not use this program in any manner prohibited above.
 ---------------------------------------------------------------
  

 Cite this work as:
 Gaussian 09, Revision D.01,
 M. J. Frisch, G. W. Trucks, H. B. Schlegel, G. E. Scuseria, 
 M. A. Robb, J. R. Cheeseman, G. Scalmani, V. Barone, B. Mennucci, 
 G. A. Petersson, H. Nakatsuji, M. Caricato, X. Li, H. P. Hratchian, 
 A. F. Izmaylov, J. Bloino, G. Zheng, J. L. Sonnenberg, M. Hada, 
 M. Ehara, K. Toyota, R. Fukuda, J. Hasegawa, M. Ishida, T. Nakajima, 
 Y. Honda, O. Kitao, H. Nakai, T. Vreven, J. A. Montgomery, Jr., 
 J. E. Peralta, F. Ogliaro, M. Bearpark, J. J. Heyd, E. Brothers, 
 K. N. Kudin, V. N. Staroverov, T. Keith, R. Kobayashi, J. Normand, 
 K. Raghavachari, A. Rendell, J. C. Burant, S. S. Iyengar, J. Tomasi, 
 M. Cossi, N. Rega, J. M. Millam, M. Klene, J. E. Knox, J. B. Cross, 
 V. Bakken, C. Adamo, J. Jaramillo, R. Gomperts, R. E. Stratmann, 
 O. Yazyev, A. J. Austin, R. Cammi, C. Pomelli, J. W. Ochterski, 
 R. L. Martin, K. Morokuma, V. G. Zakrzewski, G. A. Voth, 
 P. Salvador, J. J. Dannenberg, S. Dapprich, A. D. Daniels, 
 O. Farkas, J. B. Foresman, J. V. Ortiz, J. Cioslowski, 
 and D. J. Fox, Gaussian, Inc., Wallingford CT, 2013.
 
 ******************************************
 Gaussian 09:  AS64L-G09RevD.01 24-Apr-2013
                19-Jan-2019 
 ******************************************
 %Chk=BLIND01521
 %Mem=1GB
 %NProcShared=48
 Will use up to   48 processors via shared memory.
 ---------------------------------------------
 #T M05/Gen test Massage SCF=(fermi,maxcyc=60)
 ---------------------------------------------
 -------
 M05 opt
 -------
 Symbolic Z-matrix:
 Charge =  0 Multiplicity = 1
 6                    -0.22564   0.8569   -0.50588 
 6                     0.19733  -0.20997  -1.34773 
 16                   -1.08168   0.66624   1.01706 
 16                   -0.04576  -1.92379  -0.97582 
 6                    -0.38731  -0.8623    1.58763 
 6                     0.02133  -1.88805   0.79484 
 6                     0.07501   2.06526  -1.10151 
 7                     0.77186   0.10846  -2.48192 
 16                    0.81846   1.76504  -2.63838 
 6                    -0.32927  -0.95451   3.00862 
 7                    -0.32448  -0.99278   4.17039 
 6                     0.52353  -3.09794   1.35866 
 7                     0.91143  -4.11165   1.77442 
 6                    -0.17993   3.37143  -0.61768 
 7                    -0.38961   4.45067  -0.24034 
 6                    -0.23722  -0.98566   8.15311 
 6                     0.11897  -0.63515   9.48581 
 16                   -1.01158   0.08752   6.99674 
 16                   -0.13497   0.9685    10.1918 
 6                    -0.31529   1.64344   7.48503 
 6                     0.03005   1.99027   8.75313 
 6                     0.05253  -2.31667   7.93007 
 7                     0.63605  -1.57516   10.23872 
 16                    0.70464  -3.0013    9.38295 
 6                    -0.18089   2.56059   6.40251 
 7                    -0.11292   3.28134   5.49306 
 6                     0.54002   3.28932   9.04696 
 7                     0.93137   4.34468   9.33679 
 6                    -0.15118  -3.07529   6.75186 
 7                    -0.31977  -3.71545   5.79642 
 
                    Distance matrix (angstroms):
                    1          2          3          4          5
     1  C    0.000000
     2  C    1.423315   0.000000
     3  S    1.757418   2.827694   0.000000
     4  S    2.825849   1.770477   3.428253   0.000000
     5  C    2.713774   3.063280   1.773167   2.795470   0.000000
     6  C    3.047557   2.727187   2.791121   1.772288   1.359281
     7  C    1.380327   2.291783   2.789903   3.992857   4.001979
     8  N    2.336642   1.310672   3.998700   2.658358   4.341342
     9  S    2.542129   2.439721   4.263822   4.137445   5.120151
    10  C    3.955208   4.450782   2.675676   4.110426   1.425163
    11  N    5.029770   5.597745   3.642685   5.237162   2.586817
    12  C    4.436049   3.971317   4.106384   2.674416   2.424897
    13  N    5.583831   5.047859   5.232040   3.642352   3.504263
    14  C    2.517432   3.674472   3.286888   5.309014   4.778168
    15  N    3.607292   4.826214   4.047461   6.425950   5.618639
    16  C    8.852866   9.542353   7.373262   9.178995   6.568352
    17  C   10.108357  10.842168   8.651870  10.541979   7.917651
    18  S    7.582810   8.436838   6.008028   8.278878   5.527240
    19  S   10.698644  11.604307   9.228398  11.536412   8.800408
    20  C    8.030026   9.039668   6.586111   9.186056   6.408061
    21  C    9.331627  10.339079   7.926904  10.487041   7.723717
    22  C    9.017437   9.515081   7.614053   8.915086   6.521901
    23  N   11.050065  11.674852   9.644347  11.240651   8.740529
    24  S   10.655520  11.099390   9.307514  10.441654   8.156881
    25  C    7.115503   8.239252   5.779533   8.635250   5.911163
    26  N    6.471314   7.686478   5.273691   8.303265   5.700653
    27  C    9.887351  10.973247   8.601730  11.312634   8.587057
    28  N   10.506254  11.637981   9.316711  12.107773   9.428731
    29  C    8.254848   8.598545   6.910339   7.813710   5.623380
    30  N    7.786799   7.974628   6.528546   7.010583   5.085168
                    6          7          8          9         10
     6  C    0.000000
     7  C    4.384939   0.000000
     8  N    3.909794   2.494036   0.000000
     9  S    5.076167   1.733444   1.664607   0.000000
    10  C    2.428007   5.116215   5.699860   6.371958   0.000000
    11  N    3.509330   6.107712   6.831389   7.434461   1.162408
    12  C    1.426163   5.736923   5.009263   6.301738   2.836178
    13  N    2.587713   6.864751   5.995430   7.349618   3.609722
    14  C    5.449573   1.416040   3.876636   2.767765   5.646781
    15  N    6.435818   2.578302   5.022796   3.797715   6.306769
    16  C    7.417898   9.749542  10.738674  11.186465   5.145404
    17  C    8.781356  10.926370  12.008571  12.379265   6.500531
    18  S    6.590395   8.406774   9.645005   9.949810   4.178096
    19  S    9.822780  11.348383  12.735191  12.890188   7.438663
    20  C    7.572535   8.605751  10.142885  10.187423   5.175689
    21  C    8.853011   9.855033  11.415687  11.420985   6.465312
    22  C    7.148156  10.038490  10.714857  11.355136   5.120732
    23  N    9.469036  11.923437  12.832293  13.304510   7.320615
    24  S    8.686878  11.661493  12.265816  12.932259   6.774244
    25  C    7.160808   7.524701   9.265729   9.130676   4.888396
    26  N    6.986689   6.708392   8.628459   8.323878   4.915453
    27  C    9.755596  10.232598  11.961887  11.787628   7.431509
    28  N   10.613191  10.718543  12.555988  12.250384   8.349627
    29  C    6.076627   9.388927   9.810758  10.608754   4.305960
    30  N    5.335871   9.008548   9.183943  10.123101   3.923608
                   11         12         13         14         15
    11  N    0.000000
    12  C    3.613393   0.000000
    13  N    4.122555   1.162293   0.000000
    14  C    6.480188   6.800997   7.931563   0.000000
    15  N    7.006418   7.769948   8.891861   1.162367   0.000000
    16  C    3.983680   7.155762   7.195751   9.793580  10.001341
    17  C    5.345863   8.501736   8.495854  10.873020  10.987367
    18  S    3.102810   6.655195   6.971628   8.333975   8.473446
    19  S    6.335602   9.746474   9.887113  11.073431  11.000902
    20  C    4.235159   7.792088   8.199810   8.286022   8.219939
    21  C    5.479582   8.989525   9.311961   9.474378   9.333396
    22  C    4.003750   6.634423   6.469283  10.269983  10.618284
    23  N    6.171421   9.010380   8.840474  11.958096  12.131503
    24  S    5.680143   8.026912   7.691902  11.891457  12.220349
    25  C    4.198740   7.612854   8.193358   7.066856   6.909657
    26  N    4.479098   7.628467   8.338694   6.111769   5.857966
    27  C    6.547114   9.995364  10.382780   9.691766   9.405686
    28  N    7.533741  10.918302  11.344566  10.063477   9.668382
    29  C    3.321279   5.435286   5.194043   9.791386  10.275594
    30  N    3.171266   4.559183   4.224843   9.559504  10.155432
                   16         17         18         19         20
    16  C    0.000000
    17  C    1.423315   0.000000
    18  S    1.757418   2.827694   0.000000
    19  S    2.825849   1.770477   3.428253   0.000000
    20  C    2.713774   3.063280   1.773167   2.795470   0.000000
    21  C    3.047557   2.727187   2.791121   1.772288   1.359281
    22  C    1.380327   2.291783   2.789903   3.992857   4.001979
    23  N    2.336642   1.310672   3.998700   2.658358   4.341342
    24  S    2.542129   2.439721   4.263822   4.137445   5.120151
    25  C    3.955208   4.450782   2.675676   4.110426   1.425163
    26  N    5.029770   5.597745   3.642685   5.237162   2.586817
    27  C    4.436049   3.971317   4.106384   2.674416   2.424897
    28  N    5.583831   5.047859   5.232040   3.642352   3.504263
    29  C    2.517432   3.674472   3.286888   5.309014   4.778168
    30  N    3.607292   4.826214   4.047461   6.425950   5.618639
                   21         22         23         24         25
    21  C    0.000000
    22  C    4.384939   0.000000
    23  N    3.909794   2.494036   0.000000
    24  S    5.076167   1.733444   1.664607   0.000000
    25  C    2.428007   5.116215   5.699860   6.371958   0.000000
    26  N    3.509330   6.107712   6.831389   7.434461   1.162408
    27  C    1.426163   5.736923   5.009263   6.301738   2.836178
    28  N    2.587713   6.864751   5.995430   7.349618   3.609722
    29  C    5.449573   1.416040   3.876636   2.767765   5.646781
    30  N    6.435818   2.578302   5.022796   3.797715   6.306769
                   26         27         28         29         30
    26  N    0.000000
    27  C    3.613393   0.000000
    28  N    4.122555   1.162293   0.000000
    29  C    6.480188   6.800997   7.931563   0.000000
    30  N    7.006418   7.769948   8.891861   1.162367   0.000000
 Symmetry turned off by external request.
 Framework group  C1[X(C16N8S6)]
 Deg. of freedom    84
 Rotational constants (GHZ):      0.1857713      0.0499764      0.0404093
   714 basis functions,  1518 primitive gaussians,   774 cartesian basis functions
   124 alpha electrons      124 beta electrons
       nuclear repulsion energy      3323.5151591866 Hartrees.
 IMHF & INEx in M05                  599485                  400514
 NAtoms=   30 NActive=   30 NUniq=   30 SFac= 1.00D+00 NAtFMM=   60 NAOKFM=F Big=F
 PrsmSu:  requested number of processors reduced to:  26 ShMem   1 Linda.
 ExpMin= 3.99D-02 ExpMax= 1.11D+05 ExpMxC= 1.07D+03 IAcc=3 IRadAn=         5 AccDes= 0.00D+00
 Harris functional with IExCor= 1009 and IRadAn=       5 diagonalized for initial guess.
 HarFok:  IExCor= 1009 AccDes= 0.00D+00 IRadAn=         5 IDoV= 1 UseB2=F ITyADJ=14
 ICtDFT=  3500011 ScaDFX=  1.000000  1.000000  1.000000  1.000000
 FoFCou: FMM=F IPFlag=           0 FMFlag=      100000 FMFlg1=           0
         NFxFlg=           0 DoJE=T BraDBF=F KetDBF=T FulRan=T
         wScrn=  0.000000 ICntrl=     500 IOpCl=  0 I1Cent=   200000004 NGrid=           0
         NMat0=    1 NMatS0=      1 NMatT0=    0 NMatD0=    1 NMtDS0=    0 NMtDT0=    0
 Symmetry not used in FoFCou.
 Restarting incremental Fock formation.
 SCF Done:  E(RM05) =  -3448.35402599     A.U. after   22 cycles
            NFock= 22  Conv=0.20D-08     -V/T= 2.0058

 **********************************************************************

            Population analysis using the SCF density.

 **********************************************************************

 Alpha  occ. eigenvalues --  -90.54495 -90.53707 -90.51702 -90.51322 -90.50576
 Alpha  occ. eigenvalues --  -90.50450 -15.07618 -15.06848 -15.04276 -15.03986
 Alpha  occ. eigenvalues --  -15.03943 -15.03430 -15.03375 -15.03220 -10.89116
 Alpha  occ. eigenvalues --  -10.88924 -10.88802 -10.88238 -10.88138 -10.88025
 Alpha  occ. eigenvalues --  -10.87797 -10.86940 -10.86454 -10.85584 -10.83848
 Alpha  occ. eigenvalues --  -10.83776 -10.83322 -10.82962 -10.82879 -10.82830
 Alpha  occ. eigenvalues --   -8.57103  -8.56320  -8.54608  -8.54259  -8.53516
 Alpha  occ. eigenvalues --   -8.53382  -6.39825  -6.39474  -6.39164  -6.39043
 Alpha  occ. eigenvalues --   -6.38693  -6.38381  -6.37354  -6.37040  -6.36996
 Alpha  occ. eigenvalues --   -6.36688  -6.36579  -6.36254  -6.36229  -6.36124
 Alpha  occ. eigenvalues --   -6.35945  -6.35806  -6.35487  -6.35342  -1.20344
 Alpha  occ. eigenvalues --   -1.19566  -1.12832  -1.12120  -1.11768  -1.11262
 Alpha  occ. eigenvalues --   -1.10756  -1.10617  -1.07527  -1.06719  -1.03582
 Alpha  occ. eigenvalues --   -1.02724  -0.98683  -0.97896  -0.97223  -0.96350
 Alpha  occ. eigenvalues --   -0.87860  -0.87032  -0.84397  -0.83584  -0.82046
 Alpha  occ. eigenvalues --   -0.81194  -0.73624  -0.72811  -0.71118  -0.70324
 Alpha  occ. eigenvalues --   -0.67700  -0.66849  -0.64474  -0.63647  -0.59408
 Alpha  occ. eigenvalues --   -0.58613  -0.57212  -0.56317  -0.55314  -0.54558
 Alpha  occ. eigenvalues --   -0.53470  -0.53245  -0.52397  -0.52338  -0.51901
 Alpha  occ. eigenvalues --   -0.51465  -0.51195  -0.51087  -0.50784  -0.50205
 Alpha  occ. eigenvalues --   -0.49901  -0.49258  -0.48919  -0.48244  -0.48183
 Alpha  occ. eigenvalues --   -0.47445  -0.46663  -0.46500  -0.45808  -0.45609
 Alpha  occ. eigenvalues --   -0.45365  -0.45205  -0.45114  -0.44173  -0.43538
 Alpha  occ. eigenvalues --   -0.42925  -0.42560  -0.41912  -0.39398  -0.38660
 Alpha  occ. eigenvalues --   -0.37455  -0.36541  -0.32979  -0.32011
 Alpha virt. eigenvalues --   -0.09323  -0.08542  -0.08091  -0.07262  -0.02009
 Alpha virt. eigenvalues --   -0.01247  -0.01096  -0.00575  -0.00381  -0.00146
 Alpha virt. eigenvalues --    0.00119   0.00380   0.00449   0.01013   0.01504
 Alpha virt. eigenvalues --    0.02046   0.02176   0.02567   0.02632   0.02914
 Alpha virt. eigenvalues --    0.03036   0.03163   0.03315   0.03729   0.03766
 Alpha virt. eigenvalues --    0.04161   0.04324   0.04571   0.04911   0.05037
 Alpha virt. eigenvalues --    0.05424   0.05820   0.06136   0.06491   0.06544
 Alpha virt. eigenvalues --    0.06728   0.07186   0.07444   0.07573   0.07646
 Alpha virt. eigenvalues --    0.07905   0.08101   0.08322   0.08546   0.08824
 Alpha virt. eigenvalues --    0.08983   0.09421   0.09784   0.09944   0.10160
 Alpha virt. eigenvalues --    0.10306   0.10631   0.10855   0.10956   0.11486
 Alpha virt. eigenvalues --    0.11576   0.11751   0.11899   0.12119   0.12168
 Alpha virt. eigenvalues --    0.12576   0.12835   0.12961   0.13260   0.13707
 Alpha virt. eigenvalues --    0.13990   0.14064   0.14620   0.14736   0.14820
 Alpha virt. eigenvalues --    0.15060   0.15129   0.15256   0.15568   0.15816
 Alpha virt. eigenvalues --    0.15999   0.16242   0.16339   0.16589   0.16751
 Alpha virt. eigenvalues --    0.16993   0.17173   0.17412   0.17524   0.17561
 Alpha virt. eigenvalues --    0.17956   0.18188   0.18565   0.18745   0.18940
 Alpha virt. eigenvalues --    0.19021   0.19321   0.19436   0.19866   0.20140
 Alpha virt. eigenvalues --    0.20333   0.20428   0.20545   0.20763   0.20964
 Alpha virt. eigenvalues --    0.21168   0.21495   0.21670   0.21843   0.22055
 Alpha virt. eigenvalues --    0.22365   0.22444   0.22550   0.23058   0.23176
 Alpha virt. eigenvalues --    0.23229   0.23637   0.23802   0.23986   0.24372
 Alpha virt. eigenvalues --    0.24439   0.24491   0.24739   0.24937   0.25150
 Alpha virt. eigenvalues --    0.25307   0.25620   0.25787   0.25921   0.26182
 Alpha virt. eigenvalues --    0.26239   0.26378   0.26622   0.26783   0.27205
 Alpha virt. eigenvalues --    0.27411   0.28010   0.28165   0.28255   0.28722
 Alpha virt. eigenvalues --    0.29123   0.29405   0.29510   0.29703   0.29960
 Alpha virt. eigenvalues --    0.30280   0.30610   0.30856   0.30877   0.31401
 Alpha virt. eigenvalues --    0.31644   0.32188   0.32244   0.32662   0.33014
 Alpha virt. eigenvalues --    0.33411   0.33776   0.34491   0.34773   0.35162
 Alpha virt. eigenvalues --    0.35471   0.35498   0.35849   0.36085   0.36260
 Alpha virt. eigenvalues --    0.36709   0.37019   0.37213   0.37722   0.38147
 Alpha virt. eigenvalues --    0.38242   0.38612   0.38968   0.39240   0.39716
 Alpha virt. eigenvalues --    0.40181   0.40712   0.41054   0.41504   0.41997
 Alpha virt. eigenvalues --    0.42348   0.42809   0.43050   0.43391   0.43740
 Alpha virt. eigenvalues --    0.44413   0.44800   0.45421   0.45790   0.46187
 Alpha virt. eigenvalues --    0.46245   0.47312   0.47635   0.48290   0.48836
 Alpha virt. eigenvalues --    0.49107   0.49656   0.50200   0.50886   0.51290
 Alpha virt. eigenvalues --    0.51648   0.51803   0.52007   0.52310   0.52917
 Alpha virt. eigenvalues --    0.53224   0.53510   0.53979   0.54409   0.54722
 Alpha virt. eigenvalues --    0.54859   0.55250   0.55361   0.55871   0.56168
 Alpha virt. eigenvalues --    0.56269   0.56623   0.56922   0.57255   0.57638
 Alpha virt. eigenvalues --    0.57762   0.57923   0.58329   0.58562   0.58826
 Alpha virt. eigenvalues --    0.59017   0.59379   0.59606   0.60024   0.60554
 Alpha virt. eigenvalues --    0.60734   0.61083   0.61432   0.61771   0.62235
 Alpha virt. eigenvalues --    0.62372   0.62663   0.63142   0.63367   0.63822
 Alpha virt. eigenvalues --    0.64266   0.64386   0.64783   0.65067   0.65724
 Alpha virt. eigenvalues --    0.65920   0.66244   0.66442   0.66538   0.67118
 Alpha virt. eigenvalues --    0.67551   0.67754   0.68231   0.68686   0.68741
 Alpha virt. eigenvalues --    0.69108   0.69583   0.70069   0.70276   0.70807
 Alpha virt. eigenvalues --    0.71170   0.71310   0.72069   0.72544   0.73039
 Alpha virt. eigenvalues --    0.73403   0.73905   0.74180   0.74494   0.74814
 Alpha virt. eigenvalues --    0.75380   0.75809   0.76258   0.76600   0.76903
 Alpha virt. eigenvalues --    0.77335   0.77465   0.77721   0.78026   0.78295
 Alpha virt. eigenvalues --    0.78535   0.78654   0.79137   0.79509   0.79975
 Alpha virt. eigenvalues --    0.80363   0.80507   0.80823   0.81193   0.81252
 Alpha virt. eigenvalues --    0.81480   0.81978   0.82360   0.82656   0.82855
 Alpha virt. eigenvalues --    0.83391   0.83681   0.83873   0.84331   0.85082
 Alpha virt. eigenvalues --    0.85918   0.86054   0.86315   0.86481   0.86660
 Alpha virt. eigenvalues --    0.87359   0.87728   0.88080   0.88169   0.88581
 Alpha virt. eigenvalues --    0.88941   0.89357   0.89595   0.89835   0.89907
 Alpha virt. eigenvalues --    0.90348   0.90431   0.90808   0.91137   0.91257
 Alpha virt. eigenvalues --    0.91548   0.92183   0.92548   0.92802   0.93073
 Alpha virt. eigenvalues --    0.93716   0.93878   0.94293   0.94872   0.95477
 Alpha virt. eigenvalues --    0.95740   0.96149   0.96567   0.96824   0.97140
 Alpha virt. eigenvalues --    0.97713   0.98219   0.98736   0.99302   0.99805
 Alpha virt. eigenvalues --    1.00083   1.00668   1.00847   1.01112   1.01901
 Alpha virt. eigenvalues --    1.02634   1.03234   1.03783   1.04228   1.04479
 Alpha virt. eigenvalues --    1.04824   1.05286   1.05831   1.06645   1.06968
 Alpha virt. eigenvalues --    1.07425   1.07671   1.08717   1.09193   1.09398
 Alpha virt. eigenvalues --    1.10183   1.10310   1.10518   1.11114   1.11628
 Alpha virt. eigenvalues --    1.12352   1.12880   1.13325   1.13908   1.14638
 Alpha virt. eigenvalues --    1.14865   1.15156   1.15333   1.16048   1.16707
 Alpha virt. eigenvalues --    1.17497   1.18216   1.18577   1.18967   1.19962
 Alpha virt. eigenvalues --    1.20572   1.21600   1.21950   1.22368   1.22871
 Alpha virt. eigenvalues --    1.23099   1.24110   1.24274   1.25444   1.26030
 Alpha virt. eigenvalues --    1.26520   1.27218   1.28114   1.28518   1.28757
 Alpha virt. eigenvalues --    1.29386   1.30516   1.30767   1.32158   1.32510
 Alpha virt. eigenvalues --    1.33665   1.34491   1.35236   1.38404   1.38576
 Alpha virt. eigenvalues --    1.39248   1.40173   1.41007   1.41239   1.42128
 Alpha virt. eigenvalues --    1.42609   1.43523   1.43697   1.43987   1.45601
 Alpha virt. eigenvalues --    1.45849   1.45973   1.46163   1.47341   1.47868
 Alpha virt. eigenvalues --    1.48175   1.49819   1.50258   1.50794   1.51158
 Alpha virt. eigenvalues --    1.51671   1.52229   1.52422   1.52807   1.53196
 Alpha virt. eigenvalues --    1.53554   1.53600   1.54018   1.54666   1.54861
 Alpha virt. eigenvalues --    1.55426   1.56156   1.56558   1.56785   1.56908
 Alpha virt. eigenvalues --    1.57753   1.57929   1.58045   1.58858   1.59194
 Alpha virt. eigenvalues --    1.59903   1.60081   1.60323   1.61001   1.61394
 Alpha virt. eigenvalues --    1.61755   1.61984   1.62746   1.63261   1.64010
 Alpha virt. eigenvalues --    1.64226   1.64683   1.65226   1.65612   1.66794
 Alpha virt. eigenvalues --    1.66891   1.67889   1.69541   1.69843   1.70207
 Alpha virt. eigenvalues --    1.70551   1.70653   1.71884   1.72697   1.73235
 Alpha virt. eigenvalues --    1.73518   1.74734   1.75803   1.76076   1.77243
 Alpha virt. eigenvalues --    1.78124   1.79267   1.79803   1.80129   1.80549
 Alpha virt. eigenvalues --    1.80732   1.81360   1.81910   1.83634   1.84623
 Alpha virt. eigenvalues --    1.85560   1.86794   1.87755   1.88511   1.90299
 Alpha virt. eigenvalues --    1.90572   1.91470   1.92074   1.92232   1.92909
 Alpha virt. eigenvalues --    1.93606   1.94415   1.95507   1.95920   1.96757
 Alpha virt. eigenvalues --    1.97603   1.99341   2.00756   2.01360   2.02260
 Alpha virt. eigenvalues --    2.03998   2.06362   2.07010   2.08162   2.08392
 Alpha virt. eigenvalues --    2.09093   2.09622   2.10344   2.11124   2.12274
 Alpha virt. eigenvalues --    2.13139   2.15826   2.16192   2.18159   2.20496
 Alpha virt. eigenvalues --    2.20951   2.21399   2.26999   2.27377   2.28298
 Alpha virt. eigenvalues --    2.30624   2.31770   2.33309   2.35444   2.37879
 Alpha virt. eigenvalues --    2.38193   2.38737   2.39068   2.39518   2.39691
 Alpha virt. eigenvalues --    2.39949   2.40610   2.41316   2.41569   2.42214
 Alpha virt. eigenvalues --    2.42573   2.42802   2.43286   2.43574   2.44804
 Alpha virt. eigenvalues --    2.44952   2.45608   2.46535   2.47649   2.50763
 Alpha virt. eigenvalues --    2.52966   2.53674   2.55513   2.56151   2.58522
 Alpha virt. eigenvalues --    2.64429   2.65704   2.66888   2.69402   2.69835
 Alpha virt. eigenvalues --    2.72337   2.72824   2.73635   2.73888   2.75768
 Alpha virt. eigenvalues --    2.77342   2.77903   2.80156   2.80784   2.83414
 Alpha virt. eigenvalues --    2.87172   2.95252   2.96924   3.01036   3.01827
 Alpha virt. eigenvalues --    3.03336   3.03596   3.11389   3.12413   3.14062
 Alpha virt. eigenvalues --    3.14641   3.17015   3.18950   3.19649   3.25697
 Alpha virt. eigenvalues --    3.27828   3.29467   3.33484   3.36366   3.43208
 Alpha virt. eigenvalues --    3.45559   3.62052   3.63447   3.78480   3.85169
          Condensed to atoms (all electrons):
 Mulliken charges:
               1
     1  C    0.347289
     2  C    0.131565
     3  S    0.384678
     4  S    0.271306
     5  C    1.271440
     6  C    1.131265
     7  C    0.897852
     8  N   -1.102177
     9  S    0.545611
    10  C   -1.550765
    11  N    0.004356
    12  C   -1.160126
    13  N   -0.125622
    14  C   -0.881592
    15  N   -0.160401
    16  C    0.588622
    17  C   -0.051608
    18  S    0.482854
    19  S    0.306729
    20  C    1.157844
    21  C    1.166804
    22  C    0.792576
    23  N   -1.084649
    24  S    0.551203
    25  C   -1.359724
    26  N   -0.094648
    27  C   -1.200586
    28  N   -0.142800
    29  C   -1.014561
    30  N   -0.102734
 Sum of Mulliken charges =  -0.00000
 Mulliken charges with hydrogens summed into heavy atoms:
               1
     1  C    0.347289
     2  C    0.131565
     3  S    0.384678
     4  S    0.271306
     5  C    1.271440
     6  C    1.131265
     7  C    0.897852
     8  N   -1.102177
     9  S    0.545611
    10  C   -1.550765
    11  N    0.004356
    12  C   -1.160126
    13  N   -0.125622
    14  C   -0.881592
    15  N   -0.160401
    16  C    0.588622
    17  C   -0.051608
    18  S    0.482854
    19  S    0.306729
    20  C    1.157844
    21  C    1.166804
    22  C    0.792576
    23  N   -1.084649
    24  S    0.551203
    25  C   -1.359724
    26  N   -0.094648
    27  C   -1.200586
    28  N   -0.142800
    29  C   -1.014561
    30  N   -0.102734
 Electronic spatial extent (au):  <R**2>=          38271.9153
 Charge=             -0.0000 electrons
 Dipole moment (field-independent basis, Debye):
    X=             -1.5124    Y=             -2.7797    Z=             -2.3399  Tot=              3.9357

 Test job not archived.
 1\1\GINC-CHIMERA-NODE51\SP\RM05\Gen\C16N8S6\CONNORNM\19-Jan-2019\0\\#T
  M05/Gen test Massage SCF=(fermi,maxcyc=60)\\M05 opt\\0,1\C,0,-0.22563
 844,0.85690108,-0.50588215\C,0,0.19732719,-0.20996875,-1.34773457\S,0,
 -1.08167843,0.66623636,1.01706208\S,0,-0.04575671,-1.92378749,-0.97581
 538\C,0,-0.38730541,-0.86229994,1.58762756\C,0,0.02132718,-1.88804533,
 0.79484142\C,0,0.07500827,2.06526325,-1.1015126\N,0,0.77185943,0.10845
 738,-2.48192042\S,0,0.81846495,1.76503967,-2.63838102\C,0,-0.32926639,
 -0.95450931,3.00861966\N,0,-0.32447503,-0.99277908,4.17038792\C,0,0.52
 352874,-3.09793851,1.35866235\N,0,0.91143225,-4.11164578,1.77442017\C,
 0,-0.17992726,3.37143397,-0.61767962\N,0,-0.38961188,4.45066743,-0.240
 34235\C,0,-0.23721862,-0.9856574,8.15310619\C,0,0.11897424,-0.63515042
 ,9.48580952\S,0,-1.01157566,0.08751956,6.99674161\S,0,-0.13497412,0.96
 849628,10.19179524\C,0,-0.31529013,1.64343892,7.48502787\C,0,0.0300541
 9,1.99026899,8.75313286\C,0,0.05253154,-2.31667255,7.93006644\N,0,0.63
 60474,-1.57516083,10.23872106\S,0,0.70464021,-3.00129788,9.38294944\C,
 0,-0.18089395,2.56059313,6.40250513\N,0,-0.11291569,3.28134171,5.49305
 834\C,0,0.54002095,3.28932304,9.04696004\N,0,0.93137049,4.34467731,9.3
 367859\C,0,-0.15117675,-3.07529201,6.75186107\N,0,-0.31977005,-3.71544
 887,5.79641803\\Version=AS64L-G09RevD.01\HF=-3448.354026\RMSD=1.958e-0
 9\Dipole=-0.5950176,-1.0936268,-0.9206022\Quadrupole=11.7852793,-28.13
 66218,16.3513425,0.2650099,-8.2470694,-23.7481926\PG=C01 [X(C16N8S6)]\
 \@


 ... IT CAN BE VERY DIFFICULT, IN THESE COMPLEX TIMES,
 TO UNDERSTAND JUST HOW SCIENTISTS DO WHAT THEY DO.

                     DON MOSER IN THE FEBRUARY 1979 SMITHSONIAN
 Job cpu time:       0 days 12 hours  9 minutes 49.0 seconds.
 File lengths (MBytes):  RWF=    225 Int=      0 D2E=      0 Chk=     19 Scr=      1
 Normal termination of Gaussian 09 at Sat Jan 19 14:13:57 2019.
