 Entering Gaussian System, Link 0=/data/szalewicgrp/connornm/opt/Gaussian/g09-M05-par/g09/g09
 AtFile(1): blind-aug.gbs
 Initial command:
 /data/szalewicgrp/connornm/opt/Gaussian/g09-M05-par/g09/l1.exe "/scratch/local/Gau-18494.inp" -scrdir="/scratch/local/"
 Entering Link 1 = /data/szalewicgrp/connornm/opt/Gaussian/g09-M05-par/g09/l1.exe PID=     18495.
  
 Copyright (c) 1988,1990,1992,1993,1995,1998,2003,2009,2013,
            Gaussian, Inc.  All Rights Reserved.
  
 This is part of the Gaussian(R) 09 program.  It is based on
 the Gaussian(R) 03 system (copyright 2003, Gaussian, Inc.),
 the Gaussian(R) 98 system (copyright 1998, Gaussian, Inc.),
 the Gaussian(R) 94 system (copyright 1995, Gaussian, Inc.),
 the Gaussian 92(TM) system (copyright 1992, Gaussian, Inc.),
 the Gaussian 90(TM) system (copyright 1990, Gaussian, Inc.),
 the Gaussian 88(TM) system (copyright 1988, Gaussian, Inc.),
 the Gaussian 86(TM) system (copyright 1986, Carnegie Mellon
 University), and the Gaussian 82(TM) system (copyright 1983,
 Carnegie Mellon University). Gaussian is a federally registered
 trademark of Gaussian, Inc.
  
 This software contains proprietary and confidential information,
 including trade secrets, belonging to Gaussian, Inc.
  
 This software is provided under written license and may be
 used, copied, transmitted, or stored only in accord with that
 written license.
  
 The following legend is applicable only to US Government
 contracts under FAR:
  
                    RESTRICTED RIGHTS LEGEND
  
 Use, reproduction and disclosure by the US Government is
 subject to restrictions as set forth in subparagraphs (a)
 and (c) of the Commercial Computer Software - Restricted
 Rights clause in FAR 52.227-19.
  
 Gaussian, Inc.
 340 Quinnipiac St., Bldg. 40, Wallingford CT 06492
  
  
 ---------------------------------------------------------------
 Warning -- This program may not be used in any manner that
 competes with the business of Gaussian, Inc. or will provide
 assistance to any competitor of Gaussian, Inc.  The licensee
 of this program is prohibited from giving any competitor of
 Gaussian, Inc. access to this program.  By using this program,
 the user acknowledges that Gaussian, Inc. is engaged in the
 business of creating and licensing software in the field of
 computational chemistry and represents and warrants to the
 licensee that it is not a competitor of Gaussian, Inc. and that
 it will not use this program in any manner prohibited above.
 ---------------------------------------------------------------
  

 Cite this work as:
 Gaussian 09, Revision D.01,
 M. J. Frisch, G. W. Trucks, H. B. Schlegel, G. E. Scuseria, 
 M. A. Robb, J. R. Cheeseman, G. Scalmani, V. Barone, B. Mennucci, 
 G. A. Petersson, H. Nakatsuji, M. Caricato, X. Li, H. P. Hratchian, 
 A. F. Izmaylov, J. Bloino, G. Zheng, J. L. Sonnenberg, M. Hada, 
 M. Ehara, K. Toyota, R. Fukuda, J. Hasegawa, M. Ishida, T. Nakajima, 
 Y. Honda, O. Kitao, H. Nakai, T. Vreven, J. A. Montgomery, Jr., 
 J. E. Peralta, F. Ogliaro, M. Bearpark, J. J. Heyd, E. Brothers, 
 K. N. Kudin, V. N. Staroverov, T. Keith, R. Kobayashi, J. Normand, 
 K. Raghavachari, A. Rendell, J. C. Burant, S. S. Iyengar, J. Tomasi, 
 M. Cossi, N. Rega, J. M. Millam, M. Klene, J. E. Knox, J. B. Cross, 
 V. Bakken, C. Adamo, J. Jaramillo, R. Gomperts, R. E. Stratmann, 
 O. Yazyev, A. J. Austin, R. Cammi, C. Pomelli, J. W. Ochterski, 
 R. L. Martin, K. Morokuma, V. G. Zakrzewski, G. A. Voth, 
 P. Salvador, J. J. Dannenberg, S. Dapprich, A. D. Daniels, 
 O. Farkas, J. B. Foresman, J. V. Ortiz, J. Cioslowski, 
 and D. J. Fox, Gaussian, Inc., Wallingford CT, 2013.
 
 ******************************************
 Gaussian 09:  AS64L-G09RevD.01 24-Apr-2013
                19-Jan-2019 
 ******************************************
 %Chk=BLIND02594_mA
 %Mem=1GB
 %NProcShared=48
 Will use up to   48 processors via shared memory.
 ---------------------------------------------
 #T M05/Gen test Massage SCF=(fermi,maxcyc=60)
 ---------------------------------------------
 -------
 M05 opt
 -------
 Symbolic Z-matrix:
 Charge =  0 Multiplicity = 1
 6                    -1.00976  -0.13854   0.04794 
 6                    -0.62773   1.21497  -0.17088 
 16                   -0.10916  -1.54545  -0.49798 
 16                    0.8515    1.70519  -1.01121 
 6                     1.54965  -0.92882  -0.38731 
 6                     1.92759   0.36061  -0.59271 
 6                    -2.23047  -0.17806   0.69107 
 7                    -1.44578   2.14806   0.25103 
 16                   -2.79054   1.44424   0.93453 
 6                     2.50596  -1.94477  -0.09677 
 7                     3.2506   -2.81119   0.11774 
 6                     3.29958   0.74412  -0.52566 
 7                     4.40732   1.09568  -0.50984 
 6                    -2.97896  -1.31286   1.0875 
 7                    -3.61101  -2.23297   1.41154 
 
                    Distance matrix (angstroms):
                    1          2          3          4          5
     1  C    0.000000
     2  C    1.423315   0.000000
     3  S    1.757418   2.827694   0.000000
     4  S    2.825849   1.770477   3.428253   0.000000
     5  C    2.713774   3.063280   1.773167   2.795470   0.000000
     6  C    3.047557   2.727187   2.791121   1.772288   1.359281
     7  C    1.380327   2.291783   2.789903   3.992857   4.001979
     8  N    2.336642   1.310672   3.998700   2.658358   4.341342
     9  S    2.542129   2.439721   4.263822   4.137445   5.120151
    10  C    3.955208   4.450782   2.675676   4.110426   1.425163
    11  N    5.029770   5.597745   3.642685   5.237162   2.586817
    12  C    4.436049   3.971317   4.106384   2.674416   2.424897
    13  N    5.583831   5.047859   5.232040   3.642352   3.504263
    14  C    2.517432   3.674472   3.286888   5.309014   4.778168
    15  N    3.607292   4.826214   4.047461   6.425950   5.618639
                    6          7          8          9         10
     6  C    0.000000
     7  C    4.384939   0.000000
     8  N    3.909794   2.494036   0.000000
     9  S    5.076167   1.733444   1.664607   0.000000
    10  C    2.428007   5.116215   5.699860   6.371958   0.000000
    11  N    3.509330   6.107712   6.831389   7.434461   1.162408
    12  C    1.426163   5.736923   5.009263   6.301738   2.836178
    13  N    2.587713   6.864751   5.995430   7.349618   3.609722
    14  C    5.449573   1.416040   3.876636   2.767765   5.646781
    15  N    6.435818   2.578302   5.022796   3.797715   6.306769
                   11         12         13         14         15
    11  N    0.000000
    12  C    3.613393   0.000000
    13  N    4.122555   1.162293   0.000000
    14  C    6.480188   6.800997   7.931563   0.000000
    15  N    7.006418   7.769948   8.891861   1.162367   0.000000
 Symmetry turned off by external request.
 Framework group  C1[X(C8N4S3)]
 Deg. of freedom    39
 Rotational constants (GHZ):      0.7722167      0.3388923      0.2463240
   357 basis functions,   759 primitive gaussians,   387 cartesian basis functions
    62 alpha electrons       62 beta electrons
       nuclear repulsion energy      1166.1400390085 Hartrees.
 IMHF & INEx in M05                  599485                  400514
 NAtoms=   15 NActive=   15 NUniq=   15 SFac= 1.00D+00 NAtFMM=   60 NAOKFM=F Big=F
 PrsmSu:  requested number of processors reduced to:  34 ShMem   1 Linda.
 ExpMin= 3.99D-02 ExpMax= 1.11D+05 ExpMxC= 1.07D+03 IAcc=3 IRadAn=         5 AccDes= 0.00D+00
 Harris functional with IExCor= 1009 and IRadAn=       5 diagonalized for initial guess.
 HarFok:  IExCor= 1009 AccDes= 0.00D+00 IRadAn=         5 IDoV= 1 UseB2=F ITyADJ=14
 ICtDFT=  3500011 ScaDFX=  1.000000  1.000000  1.000000  1.000000
 FoFCou: FMM=F IPFlag=           0 FMFlag=      100000 FMFlg1=           0
         NFxFlg=           0 DoJE=T BraDBF=F KetDBF=T FulRan=T
         wScrn=  0.000000 ICntrl=     500 IOpCl=  0 I1Cent=   200000004 NGrid=           0
         NMat0=    1 NMatS0=      1 NMatT0=    0 NMatD0=    1 NMtDS0=    0 NMtDT0=    0
 Symmetry not used in FoFCou.
 SCF Done:  E(RM05) =  -1724.76147115     A.U. after   17 cycles
            NFock= 17  Conv=0.51D-08     -V/T= 2.0061

 **********************************************************************

            Population analysis using the SCF density.

 **********************************************************************

 Alpha  occ. eigenvalues --  -90.56431 -90.53636 -90.53182 -15.08621 -15.05417
 Alpha  occ. eigenvalues --  -15.04969 -15.04934 -10.89945 -10.89826 -10.89736
 Alpha  occ. eigenvalues --  -10.88752 -10.87414 -10.84946 -10.84332 -10.84310
 Alpha  occ. eigenvalues --   -8.57526  -8.55035  -8.54609  -6.40063  -6.39713
 Alpha  occ. eigenvalues --   -6.39401  -6.37597  -6.37282  -6.37163  -6.36853
 Alpha  occ. eigenvalues --   -6.36821  -6.36392  -1.20533  -1.12895  -1.12139
 Alpha  occ. eigenvalues --   -1.11337  -1.07643  -1.03801  -0.98824  -0.97396
 Alpha  occ. eigenvalues --   -0.88002  -0.84555  -0.82236  -0.73686  -0.71296
 Alpha  occ. eigenvalues --   -0.67838  -0.64612  -0.59530  -0.57258  -0.55386
 Alpha  occ. eigenvalues --   -0.53384  -0.52648  -0.52243  -0.51890  -0.50883
 Alpha  occ. eigenvalues --   -0.50387  -0.49356  -0.48215  -0.46804  -0.46074
 Alpha  occ. eigenvalues --   -0.45933  -0.45296  -0.43720  -0.43113  -0.39488
 Alpha  occ. eigenvalues --   -0.37628  -0.33119
 Alpha virt. eigenvalues --   -0.09329  -0.08268  -0.02097  -0.01262  -0.00498
 Alpha virt. eigenvalues --   -0.00361   0.00153   0.01255   0.02024   0.02229
 Alpha virt. eigenvalues --    0.02395   0.02958   0.03193   0.04004   0.04275
 Alpha virt. eigenvalues --    0.04486   0.05427   0.06008   0.06299   0.07067
 Alpha virt. eigenvalues --    0.07276   0.07525   0.07708   0.08291   0.08491
 Alpha virt. eigenvalues --    0.09378   0.10093   0.10394   0.10528   0.10816
 Alpha virt. eigenvalues --    0.11287   0.11395   0.11981   0.12529   0.13225
 Alpha virt. eigenvalues --    0.13493   0.13939   0.14456   0.15074   0.15190
 Alpha virt. eigenvalues --    0.15901   0.16282   0.16676   0.16812   0.17185
 Alpha virt. eigenvalues --    0.17363   0.17840   0.18610   0.19056   0.19562
 Alpha virt. eigenvalues --    0.19872   0.20244   0.20683   0.20940   0.21265
 Alpha virt. eigenvalues --    0.21880   0.22208   0.22581   0.22829   0.23613
 Alpha virt. eigenvalues --    0.23749   0.24113   0.24376   0.24705   0.25262
 Alpha virt. eigenvalues --    0.25698   0.25855   0.26227   0.26624   0.26745
 Alpha virt. eigenvalues --    0.27076   0.28338   0.29194   0.29662   0.30368
 Alpha virt. eigenvalues --    0.30711   0.32418   0.33456   0.34158   0.34715
 Alpha virt. eigenvalues --    0.34950   0.35469   0.36120   0.36935   0.37593
 Alpha virt. eigenvalues --    0.38151   0.39574   0.40724   0.41173   0.42050
 Alpha virt. eigenvalues --    0.42123   0.43486   0.44134   0.45737   0.45981
 Alpha virt. eigenvalues --    0.46959   0.48562   0.49574   0.50244   0.50603
 Alpha virt. eigenvalues --    0.51524   0.51859   0.53529   0.54167   0.54423
 Alpha virt. eigenvalues --    0.54702   0.55466   0.55732   0.55836   0.56451
 Alpha virt. eigenvalues --    0.57773   0.58141   0.58554   0.59215   0.60308
 Alpha virt. eigenvalues --    0.60552   0.61101   0.61585   0.62104   0.62711
 Alpha virt. eigenvalues --    0.63713   0.64720   0.64949   0.66005   0.66557
 Alpha virt. eigenvalues --    0.67694   0.68188   0.68806   0.70102   0.70416
 Alpha virt. eigenvalues --    0.71046   0.72866   0.73470   0.73858   0.75370
 Alpha virt. eigenvalues --    0.75563   0.76454   0.77062   0.77556   0.77841
 Alpha virt. eigenvalues --    0.78246   0.79253   0.79762   0.79879   0.81111
 Alpha virt. eigenvalues --    0.81538   0.82543   0.83280   0.83954   0.84871
 Alpha virt. eigenvalues --    0.85696   0.85938   0.87124   0.87250   0.88405
 Alpha virt. eigenvalues --    0.88458   0.89344   0.89670   0.89830   0.90728
 Alpha virt. eigenvalues --    0.91171   0.91725   0.92830   0.93724   0.94369
 Alpha virt. eigenvalues --    0.95433   0.95566   0.97326   0.98747   0.99313
 Alpha virt. eigenvalues --    0.99850   1.01208   1.02848   1.03577   1.04750
 Alpha virt. eigenvalues --    1.05760   1.06746   1.08037   1.08542   1.09638
 Alpha virt. eigenvalues --    1.10235   1.11400   1.13194   1.13609   1.14402
 Alpha virt. eigenvalues --    1.15322   1.17105   1.18343   1.20285   1.20635
 Alpha virt. eigenvalues --    1.21609   1.22699   1.23934   1.24221   1.26557
 Alpha virt. eigenvalues --    1.27343   1.29759   1.30252   1.32272   1.34124
 Alpha virt. eigenvalues --    1.37314   1.40081   1.40260   1.41567   1.42730
 Alpha virt. eigenvalues --    1.43619   1.45024   1.46462   1.47273   1.49370
 Alpha virt. eigenvalues --    1.49823   1.50474   1.51641   1.51868   1.52330
 Alpha virt. eigenvalues --    1.53716   1.54194   1.55431   1.56138   1.56451
 Alpha virt. eigenvalues --    1.56790   1.58486   1.59725   1.60389   1.60515
 Alpha virt. eigenvalues --    1.62129   1.63280   1.64920   1.66028   1.67547
 Alpha virt. eigenvalues --    1.68610   1.69173   1.70468   1.71323   1.74152
 Alpha virt. eigenvalues --    1.76825   1.77078   1.79017   1.79377   1.81040
 Alpha virt. eigenvalues --    1.82962   1.85921   1.88150   1.89706   1.90608
 Alpha virt. eigenvalues --    1.91369   1.94485   1.95007   1.97394   2.00540
 Alpha virt. eigenvalues --    2.00828   2.05448   2.07036   2.08350   2.08474
 Alpha virt. eigenvalues --    2.10895   2.13937   2.18607   2.20233   2.24595
 Alpha virt. eigenvalues --    2.27646   2.30686   2.37027   2.37402   2.38001
 Alpha virt. eigenvalues --    2.38279   2.39369   2.39930   2.40470   2.42150
 Alpha virt. eigenvalues --    2.42561   2.43757   2.45058   2.51024   2.54995
 Alpha virt. eigenvalues --    2.61154   2.64119   2.68329   2.71900   2.73264
 Alpha virt. eigenvalues --    2.76309   2.78780   2.81840   2.94681   2.99729
 Alpha virt. eigenvalues --    3.01876   3.09940   3.11448   3.15940   3.17849
 Alpha virt. eigenvalues --    3.24292   3.27128   3.35294   3.59303   3.74892
          Condensed to atoms (all electrons):
 Mulliken charges:
               1
     1  C    0.620269
     2  C   -0.109280
     3  S    0.373630
     4  S    0.297178
     5  C    1.040808
     6  C    1.130733
     7  C    0.786874
     8  N   -1.083172
     9  S    0.557098
    10  C   -1.130780
    11  N   -0.167758
    12  C   -1.099428
    13  N   -0.180390
    14  C   -0.852843
    15  N   -0.182937
 Sum of Mulliken charges =  -0.00000
 Mulliken charges with hydrogens summed into heavy atoms:
               1
     1  C    0.620269
     2  C   -0.109280
     3  S    0.373630
     4  S    0.297178
     5  C    1.040808
     6  C    1.130733
     7  C    0.786874
     8  N   -1.083172
     9  S    0.557098
    10  C   -1.130780
    11  N   -0.167758
    12  C   -1.099428
    13  N   -0.180390
    14  C   -0.852843
    15  N   -0.182937
 Electronic spatial extent (au):  <R**2>=           4013.7194
 Charge=              0.0000 electrons
 Dipole moment (field-independent basis, Debye):
    X=             -3.7394    Y=              2.6415    Z=             -0.9939  Tot=              4.6849

 Test job not archived.
 1\1\GINC-CHIMERA-NODE59\SP\RM05\Gen\C8N4S3\CONNORNM\19-Jan-2019\0\\#T 
 M05/Gen test Massage SCF=(fermi,maxcyc=60)\\M05 opt\\0,1\C,0,-1.009761
 19,-0.13853881,0.04793996\C,0,-0.62773362,1.21497445,-0.1708829\S,0,-0
 .10915645,-1.54544897,-0.49798268\S,0,0.85149952,1.70519069,-1.0112076
 6\C,0,1.54965007,-0.92881654,-0.3873144\C,0,1.92758784,0.36060905,-0.5
 9271339\C,0,-2.23046677,-0.17806095,0.69107223\N,0,-1.4457782,2.148061
 31,0.25103178\S,0,-2.79054047,1.44424347,0.93453145\C,0,2.50595697,-1.
 94476517,-0.09677157\N,0,3.25059752,-2.81118907,0.11773507\C,0,3.29958
 003,0.74412363,-0.52566182\N,0,4.40731916,1.09567706,-0.5098395\C,0,-2
 .97896205,-1.31286052,1.08749775\N,0,-3.61100739,-2.23297412,1.4115433
 7\\Version=AS64L-G09RevD.01\HF=-1724.7614711\RMSD=5.133e-09\Dipole=-1.
 4711993,1.0392293,-0.3910425\Quadrupole=-10.1263905,-0.7055157,10.8319
 062,-3.694775,1.263644,3.6588697\PG=C01 [X(C8N4S3)]\\@


 Ideas are like rabbits. You get a couple and learn
 how to handle them, and pretty soon you have a dozen.
                                    -- John Steinbeck
 Job cpu time:       0 days  1 hours 49 minutes 23.4 seconds.
 File lengths (MBytes):  RWF=     58 Int=      0 D2E=      0 Chk=      6 Scr=      1
 Normal termination of Gaussian 09 at Sat Jan 19 11:09:54 2019.
