 Entering Gaussian System, Link 0=/data/szalewicgrp/connornm/opt/Gaussian/g09-M05-par/g09/g09
 AtFile(1): blind-aug.gbs
 Initial command:
 /data/szalewicgrp/connornm/opt/Gaussian/g09-M05-par/g09/l1.exe "/scratch/local/Gau-23121.inp" -scrdir="/scratch/local/"
 Entering Link 1 = /data/szalewicgrp/connornm/opt/Gaussian/g09-M05-par/g09/l1.exe PID=     23122.
  
 Copyright (c) 1988,1990,1992,1993,1995,1998,2003,2009,2013,
            Gaussian, Inc.  All Rights Reserved.
  
 This is part of the Gaussian(R) 09 program.  It is based on
 the Gaussian(R) 03 system (copyright 2003, Gaussian, Inc.),
 the Gaussian(R) 98 system (copyright 1998, Gaussian, Inc.),
 the Gaussian(R) 94 system (copyright 1995, Gaussian, Inc.),
 the Gaussian 92(TM) system (copyright 1992, Gaussian, Inc.),
 the Gaussian 90(TM) system (copyright 1990, Gaussian, Inc.),
 the Gaussian 88(TM) system (copyright 1988, Gaussian, Inc.),
 the Gaussian 86(TM) system (copyright 1986, Carnegie Mellon
 University), and the Gaussian 82(TM) system (copyright 1983,
 Carnegie Mellon University). Gaussian is a federally registered
 trademark of Gaussian, Inc.
  
 This software contains proprietary and confidential information,
 including trade secrets, belonging to Gaussian, Inc.
  
 This software is provided under written license and may be
 used, copied, transmitted, or stored only in accord with that
 written license.
  
 The following legend is applicable only to US Government
 contracts under FAR:
  
                    RESTRICTED RIGHTS LEGEND
  
 Use, reproduction and disclosure by the US Government is
 subject to restrictions as set forth in subparagraphs (a)
 and (c) of the Commercial Computer Software - Restricted
 Rights clause in FAR 52.227-19.
  
 Gaussian, Inc.
 340 Quinnipiac St., Bldg. 40, Wallingford CT 06492
  
  
 ---------------------------------------------------------------
 Warning -- This program may not be used in any manner that
 competes with the business of Gaussian, Inc. or will provide
 assistance to any competitor of Gaussian, Inc.  The licensee
 of this program is prohibited from giving any competitor of
 Gaussian, Inc. access to this program.  By using this program,
 the user acknowledges that Gaussian, Inc. is engaged in the
 business of creating and licensing software in the field of
 computational chemistry and represents and warrants to the
 licensee that it is not a competitor of Gaussian, Inc. and that
 it will not use this program in any manner prohibited above.
 ---------------------------------------------------------------
  

 Cite this work as:
 Gaussian 09, Revision D.01,
 M. J. Frisch, G. W. Trucks, H. B. Schlegel, G. E. Scuseria, 
 M. A. Robb, J. R. Cheeseman, G. Scalmani, V. Barone, B. Mennucci, 
 G. A. Petersson, H. Nakatsuji, M. Caricato, X. Li, H. P. Hratchian, 
 A. F. Izmaylov, J. Bloino, G. Zheng, J. L. Sonnenberg, M. Hada, 
 M. Ehara, K. Toyota, R. Fukuda, J. Hasegawa, M. Ishida, T. Nakajima, 
 Y. Honda, O. Kitao, H. Nakai, T. Vreven, J. A. Montgomery, Jr., 
 J. E. Peralta, F. Ogliaro, M. Bearpark, J. J. Heyd, E. Brothers, 
 K. N. Kudin, V. N. Staroverov, T. Keith, R. Kobayashi, J. Normand, 
 K. Raghavachari, A. Rendell, J. C. Burant, S. S. Iyengar, J. Tomasi, 
 M. Cossi, N. Rega, J. M. Millam, M. Klene, J. E. Knox, J. B. Cross, 
 V. Bakken, C. Adamo, J. Jaramillo, R. Gomperts, R. E. Stratmann, 
 O. Yazyev, A. J. Austin, R. Cammi, C. Pomelli, J. W. Ochterski, 
 R. L. Martin, K. Morokuma, V. G. Zakrzewski, G. A. Voth, 
 P. Salvador, J. J. Dannenberg, S. Dapprich, A. D. Daniels, 
 O. Farkas, J. B. Foresman, J. V. Ortiz, J. Cioslowski, 
 and D. J. Fox, Gaussian, Inc., Wallingford CT, 2013.
 
 ******************************************
 Gaussian 09:  AS64L-G09RevD.01 24-Apr-2013
                18-Jan-2019 
 ******************************************
 %Chk=CH4_dimer00001
 %Mem=1GB
 %NProcShared=48
 Will use up to   48 processors via shared memory.
 ---------------------------------------------
 #T M05/Gen test Massage SCF=(fermi,maxcyc=60)
 ---------------------------------------------
 -------
 M05 opt
 -------
 Symbolic Z-matrix:
 Charge =  0 Multiplicity = 1
 6                     0.        0.        0. 
 1                     1.08914   0.       -0.19942 
 1                    -0.17957  -0.22793   1.06854 
 1                    -0.41923   0.99621  -0.24039 
 1                    -0.49034  -0.76828  -0.62873 
 0                    -0.7207    0.        0.13196 
 0                     0.11882   0.15083  -0.70707 
 0                     0.27741  -0.65921   0.15907 
 0                     0.32446   0.50838   0.41604 
 6                     0.        0.        3.43472 
 1                     0.35476   0.42502   2.47582 
 1                     0.35594  -1.04415   3.52977 
 1                     0.39616   0.6029    4.27469 
 1                    -1.10687   0.01623   3.45858 
 0                    -0.23475  -0.28124   4.06923 
 0                    -0.23553   0.69093   3.37182 
 0                    -0.26215  -0.39895   2.87889 
 0                     0.73243  -0.01074   3.41892 
 
                    Distance matrix (angstroms):
                    1          2          3          4          5
     1  C    0.000000
     2  H    1.107242   0.000000
     3  H    1.107242   1.808119   0.000000
     4  H    1.107243   1.808119   1.808119   0.000000
     5  H    1.107243   1.808119   1.808119   1.808119   0.000000
     6  Bq   0.732679   1.839921   1.105427   1.105427   1.105427
     7  Bq   0.732679   1.105427   1.839921   1.105427   1.105427
     8  Bq   0.732679   1.105427   1.105427   1.839921   1.105427
     9  Bq   0.732679   1.105427   1.105427   1.105427   1.839921
    10  C    3.434716   3.793831   2.383898   3.830749   4.164408
    11  H    2.536962   2.806570   1.640817   2.881518   3.431674
    12  H    3.698142   3.941409   2.647761   4.356393   4.252700
    13  H    4.335137   4.567423   3.361714   4.604950   5.168129
    14  H    3.631420   4.266575   2.575224   3.887883   4.207340
    15  Bq   4.085690   4.478076   3.001670   4.498758   4.730053
    16  Bq   3.449928   3.871155   2.480424   3.629739   4.265981
    17  Bq   2.918202   3.385428   1.820282   3.420688   3.534389
    18  Bq   3.496514   3.635898   2.530454   3.966220   4.295641
                    6          7          8          9         10
     6  Bq   0.000000
     7  Bq   1.196459   0.000000
     8  Bq   1.196459   1.196459   0.000000
     9  Bq   1.196459   1.196459   1.196459   0.000000
    10  C    3.380476   4.146236   3.352813   3.078332   0.000000
    11  H    2.613607   3.203379   2.559071   2.061686   1.107242
    12  H    3.714103   4.408521   3.393519   3.479467   1.107242
    13  H    4.332793   5.009914   4.306428   3.860473   1.107243
    14  H    3.349003   4.344319   3.641320   3.398230   1.107243
    15  Bq   3.977107   4.808824   3.961632   3.779159   0.732679
    16  Bq   3.348052   4.129721   3.522457   3.013888   0.732679
    17  Bq   2.813375   3.647812   2.785010   2.689423   0.732679
    18  Bq   3.593861   4.174501   3.354725   3.074611   0.732679
                   11         12         13         14         15
    11  H    0.000000
    12  H    1.808119   0.000000
    13  H    1.808119   1.808119   0.000000
    14  H    1.808119   1.808119   1.808119   0.000000
    15  Bq   1.839921   1.105427   1.105427   1.105427   0.000000
    16  Bq   1.105427   1.839921   1.105427   1.105427   1.196459
    17  Bq   1.105427   1.105427   1.839921   1.105427   1.196459
    18  Bq   1.105427   1.105427   1.105427   1.839921   1.196459
                   16         17         18
    16  Bq   0.000000
    17  Bq   1.196459   0.000000
    18  Bq   1.196459   1.196459   0.000000
 Symmetry turned off by external request.
 Symmetry turned off:
 Cannot cope with ghost atoms or with translation vectors.
 Framework group  C1[X(C2H8)]
 NUMDOF-- NAT=    10 NAtoms=    18
 Deg. of freedom     0
 Rotational constants (GHZ):     76.6916055      4.9962041      4.9962041
 No N atoms found in this molecule.
 Error termination via Lnk1e in /data/szalewicgrp/connornm/opt/Gaussian/g09-M05-par/g09/l301.exe at Fri Jan 18 12:52:29 2019.
 Job cpu time:       0 days  0 hours  0 minutes 28.4 seconds.
 File lengths (MBytes):  RWF=      5 Int=      0 D2E=      0 Chk=      1 Scr=      1
