 Entering Gaussian System, Link 0=/data/szalewicgrp/connornm/opt/Gaussian/g09-M05-par/g09/g09
 AtFile(1): blind-aug.gbs
 Initial command:
 /data/szalewicgrp/connornm/opt/Gaussian/g09-M05-par/g09/l1.exe "/scratch/local/Gau-27054.inp" -scrdir="/scratch/local/"
 Entering Link 1 = /data/szalewicgrp/connornm/opt/Gaussian/g09-M05-par/g09/l1.exe PID=     27055.
  
 Copyright (c) 1988,1990,1992,1993,1995,1998,2003,2009,2013,
            Gaussian, Inc.  All Rights Reserved.
  
 This is part of the Gaussian(R) 09 program.  It is based on
 the Gaussian(R) 03 system (copyright 2003, Gaussian, Inc.),
 the Gaussian(R) 98 system (copyright 1998, Gaussian, Inc.),
 the Gaussian(R) 94 system (copyright 1995, Gaussian, Inc.),
 the Gaussian 92(TM) system (copyright 1992, Gaussian, Inc.),
 the Gaussian 90(TM) system (copyright 1990, Gaussian, Inc.),
 the Gaussian 88(TM) system (copyright 1988, Gaussian, Inc.),
 the Gaussian 86(TM) system (copyright 1986, Carnegie Mellon
 University), and the Gaussian 82(TM) system (copyright 1983,
 Carnegie Mellon University). Gaussian is a federally registered
 trademark of Gaussian, Inc.
  
 This software contains proprietary and confidential information,
 including trade secrets, belonging to Gaussian, Inc.
  
 This software is provided under written license and may be
 used, copied, transmitted, or stored only in accord with that
 written license.
  
 The following legend is applicable only to US Government
 contracts under FAR:
  
                    RESTRICTED RIGHTS LEGEND
  
 Use, reproduction and disclosure by the US Government is
 subject to restrictions as set forth in subparagraphs (a)
 and (c) of the Commercial Computer Software - Restricted
 Rights clause in FAR 52.227-19.
  
 Gaussian, Inc.
 340 Quinnipiac St., Bldg. 40, Wallingford CT 06492
  
  
 ---------------------------------------------------------------
 Warning -- This program may not be used in any manner that
 competes with the business of Gaussian, Inc. or will provide
 assistance to any competitor of Gaussian, Inc.  The licensee
 of this program is prohibited from giving any competitor of
 Gaussian, Inc. access to this program.  By using this program,
 the user acknowledges that Gaussian, Inc. is engaged in the
 business of creating and licensing software in the field of
 computational chemistry and represents and warrants to the
 licensee that it is not a competitor of Gaussian, Inc. and that
 it will not use this program in any manner prohibited above.
 ---------------------------------------------------------------
  

 Cite this work as:
 Gaussian 09, Revision D.01,
 M. J. Frisch, G. W. Trucks, H. B. Schlegel, G. E. Scuseria, 
 M. A. Robb, J. R. Cheeseman, G. Scalmani, V. Barone, B. Mennucci, 
 G. A. Petersson, H. Nakatsuji, M. Caricato, X. Li, H. P. Hratchian, 
 A. F. Izmaylov, J. Bloino, G. Zheng, J. L. Sonnenberg, M. Hada, 
 M. Ehara, K. Toyota, R. Fukuda, J. Hasegawa, M. Ishida, T. Nakajima, 
 Y. Honda, O. Kitao, H. Nakai, T. Vreven, J. A. Montgomery, Jr., 
 J. E. Peralta, F. Ogliaro, M. Bearpark, J. J. Heyd, E. Brothers, 
 K. N. Kudin, V. N. Staroverov, T. Keith, R. Kobayashi, J. Normand, 
 K. Raghavachari, A. Rendell, J. C. Burant, S. S. Iyengar, J. Tomasi, 
 M. Cossi, N. Rega, J. M. Millam, M. Klene, J. E. Knox, J. B. Cross, 
 V. Bakken, C. Adamo, J. Jaramillo, R. Gomperts, R. E. Stratmann, 
 O. Yazyev, A. J. Austin, R. Cammi, C. Pomelli, J. W. Ochterski, 
 R. L. Martin, K. Morokuma, V. G. Zakrzewski, G. A. Voth, 
 P. Salvador, J. J. Dannenberg, S. Dapprich, A. D. Daniels, 
 O. Farkas, J. B. Foresman, J. V. Ortiz, J. Cioslowski, 
 and D. J. Fox, Gaussian, Inc., Wallingford CT, 2013.
 
 ******************************************
 Gaussian 09:  AS64L-G09RevD.01 24-Apr-2013
                20-Jan-2019 
 ******************************************
 %Chk=extra
 %Mem=1GB
 %NProcShared=48
 Will use up to   48 processors via shared memory.
 ---------------------------------------------
 #T M05/Gen test Massage SCF=(fermi,maxcyc=60)
 ---------------------------------------------
 -------
 M05 opt
 -------
 Symbolic Z-matrix:
 Charge =  0 Multiplicity = 1
 6                    -0.666    -0.67042   5.97506 
 6                     0.58833  -1.24578   6.32356 
 16                   -1.40473   0.7084    6.77609 
 16                    1.63441  -0.63743   7.61593 
 6                     0.04093   1.62742   7.23392 
 6                     1.24433   1.09072   7.56773 
 6                    -1.24681  -1.40345   4.95985 
 7                     0.96723  -2.3119    5.66198 
 16                   -0.20764  -2.73206   4.56014 
 6                    -0.17903   3.03505   7.26966 
 7                    -0.41321   4.17299   7.30773 
 6                     2.33342   1.91988   7.96813 
 7                     3.23841   2.55426   8.32795 
 6                    -2.49368  -1.18979   4.3236 
 7                    -3.5182   -1.03494   3.79683 
 
                    Distance matrix (angstroms):
                    1          2          3          4          5
     1  C    0.000000
     2  C    1.423315   0.000000
     3  S    1.757418   2.827694   0.000000
     4  S    2.825849   1.770477   3.428253   0.000000
     5  C    2.713774   3.063280   1.773167   2.795470   0.000000
     6  C    3.047557   2.727187   2.791121   1.772288   1.359281
     7  C    1.380327   2.291783   2.789903   3.992857   4.001979
     8  N    2.336642   1.310672   3.998700   2.658358   4.341342
     9  S    2.542129   2.439721   4.263822   4.137445   5.120151
    10  C    3.955208   4.450782   2.675676   4.110426   1.425163
    11  N    5.029770   5.597745   3.642685   5.237162   2.586817
    12  C    4.436049   3.971317   4.106384   2.674416   2.424897
    13  N    5.583831   5.047859   5.232040   3.642352   3.504263
    14  C    2.517432   3.674472   3.286888   5.309014   4.778168
    15  N    3.607292   4.826214   4.047461   6.425950   5.618639
                    6          7          8          9         10
     6  C    0.000000
     7  C    4.384939   0.000000
     8  N    3.909794   2.494036   0.000000
     9  S    5.076167   1.733444   1.664607   0.000000
    10  C    2.428007   5.116215   5.699860   6.371958   0.000000
    11  N    3.509330   6.107712   6.831389   7.434461   1.162408
    12  C    1.426163   5.736923   5.009263   6.301738   2.836178
    13  N    2.587713   6.864751   5.995430   7.349618   3.609722
    14  C    5.449573   1.416040   3.876636   2.767765   5.646781
    15  N    6.435818   2.578302   5.022796   3.797715   6.306769
                   11         12         13         14         15
    11  N    0.000000
    12  C    3.613393   0.000000
    13  N    4.122555   1.162293   0.000000
    14  C    6.480188   6.800997   7.931563   0.000000
    15  N    7.006418   7.769948   8.891861   1.162367   0.000000
 Symmetry turned off by external request.
 Framework group  C1[X(C8N4S3)]
 Deg. of freedom    39
 Rotational constants (GHZ):      0.7722167      0.3388923      0.2463240
   357 basis functions,   759 primitive gaussians,   387 cartesian basis functions
    62 alpha electrons       62 beta electrons
       nuclear repulsion energy      1166.1400395391 Hartrees.
 IMHF & INEx in M05                  599485                  400514
 NAtoms=   15 NActive=   15 NUniq=   15 SFac= 1.00D+00 NAtFMM=   60 NAOKFM=F Big=F
 PrsmSu:  requested number of processors reduced to:  34 ShMem   1 Linda.
 ExpMin= 3.99D-02 ExpMax= 1.11D+05 ExpMxC= 1.07D+03 IAcc=3 IRadAn=         5 AccDes= 0.00D+00
 Harris functional with IExCor= 1009 and IRadAn=       5 diagonalized for initial guess.
 HarFok:  IExCor= 1009 AccDes= 0.00D+00 IRadAn=         5 IDoV= 1 UseB2=F ITyADJ=14
 ICtDFT=  3500011 ScaDFX=  1.000000  1.000000  1.000000  1.000000
 FoFCou: FMM=F IPFlag=           0 FMFlag=      100000 FMFlg1=           0
         NFxFlg=           0 DoJE=T BraDBF=F KetDBF=T FulRan=T
         wScrn=  0.000000 ICntrl=     500 IOpCl=  0 I1Cent=   200000004 NGrid=           0
         NMat0=    1 NMatS0=      1 NMatT0=    0 NMatD0=    1 NMtDS0=    0 NMtDT0=    0
 Symmetry not used in FoFCou.
 SCF Done:  E(RM05) =  -1725.05488534     A.U. after   16 cycles
            NFock= 16  Conv=0.77D-08     -V/T= 2.0064

 **********************************************************************

            Population analysis using the SCF density.

 **********************************************************************

 Alpha  occ. eigenvalues --  -90.37102 -90.34142 -90.33659 -15.00355 -14.97247
 Alpha  occ. eigenvalues --  -14.96781 -14.96748 -10.82801 -10.82691 -10.82689
 Alpha  occ. eigenvalues --  -10.81668 -10.80387 -10.78152 -10.77516 -10.77497
 Alpha  occ. eigenvalues --   -8.49585  -8.46936  -8.46487  -6.37157  -6.36807
 Alpha  occ. eigenvalues --   -6.36493  -6.34531  -6.34220  -6.34074  -6.33768
 Alpha  occ. eigenvalues --   -6.33743  -6.33291  -1.17804  -1.10032  -1.09255
 Alpha  occ. eigenvalues --   -1.08430  -1.05057  -1.01292  -0.96593  -0.95223
 Alpha  occ. eigenvalues --   -0.86291  -0.82583  -0.80434  -0.72143  -0.69817
 Alpha  occ. eigenvalues --   -0.66659  -0.63491  -0.59116  -0.56099  -0.55025
 Alpha  occ. eigenvalues --   -0.52811  -0.51706  -0.51323  -0.50770  -0.50163
 Alpha  occ. eigenvalues --   -0.49791  -0.48836  -0.47913  -0.46356  -0.45771
 Alpha  occ. eigenvalues --   -0.45701  -0.44945  -0.43122  -0.42734  -0.39343
 Alpha  occ. eigenvalues --   -0.37442  -0.32827
 Alpha virt. eigenvalues --   -0.09851  -0.08722  -0.02857  -0.02015  -0.01124
 Alpha virt. eigenvalues --   -0.01072  -0.00541   0.00541   0.01421   0.01596
 Alpha virt. eigenvalues --    0.01739   0.02230   0.02563   0.03375   0.03657
 Alpha virt. eigenvalues --    0.03892   0.04805   0.05383   0.05642   0.06356
 Alpha virt. eigenvalues --    0.06643   0.06912   0.07043   0.07671   0.07866
 Alpha virt. eigenvalues --    0.08676   0.09490   0.09745   0.09867   0.10138
 Alpha virt. eigenvalues --    0.10567   0.10720   0.11282   0.11755   0.12593
 Alpha virt. eigenvalues --    0.12797   0.13241   0.13779   0.14321   0.14427
 Alpha virt. eigenvalues --    0.15148   0.15573   0.15797   0.16121   0.16459
 Alpha virt. eigenvalues --    0.16608   0.17160   0.17905   0.18355   0.18749
 Alpha virt. eigenvalues --    0.19184   0.19547   0.20008   0.20302   0.20546
 Alpha virt. eigenvalues --    0.21168   0.21525   0.21900   0.22080   0.22887
 Alpha virt. eigenvalues --    0.22995   0.23421   0.23601   0.24029   0.24442
 Alpha virt. eigenvalues --    0.24987   0.25130   0.25459   0.25907   0.25997
 Alpha virt. eigenvalues --    0.26310   0.27576   0.28400   0.28611   0.29507
 Alpha virt. eigenvalues --    0.29745   0.31454   0.32506   0.33231   0.33652
 Alpha virt. eigenvalues --    0.33914   0.34327   0.35130   0.35938   0.36633
 Alpha virt. eigenvalues --    0.37069   0.38531   0.39640   0.40021   0.40812
 Alpha virt. eigenvalues --    0.41019   0.42272   0.43058   0.44355   0.44818
 Alpha virt. eigenvalues --    0.45771   0.47325   0.48398   0.48907   0.49422
 Alpha virt. eigenvalues --    0.50179   0.50566   0.52078   0.52933   0.53139
 Alpha virt. eigenvalues --    0.53330   0.54222   0.54401   0.54560   0.55017
 Alpha virt. eigenvalues --    0.56454   0.56817   0.56940   0.57811   0.58803
 Alpha virt. eigenvalues --    0.59134   0.59746   0.60204   0.60509   0.61172
 Alpha virt. eigenvalues --    0.62366   0.63271   0.63380   0.64406   0.65015
 Alpha virt. eigenvalues --    0.66063   0.66469   0.67161   0.68492   0.68702
 Alpha virt. eigenvalues --    0.69180   0.71003   0.71580   0.72159   0.73512
 Alpha virt. eigenvalues --    0.73661   0.74632   0.75314   0.75731   0.76190
 Alpha virt. eigenvalues --    0.76540   0.77545   0.77809   0.78109   0.79395
 Alpha virt. eigenvalues --    0.79643   0.80747   0.81433   0.81985   0.82938
 Alpha virt. eigenvalues --    0.83700   0.83998   0.85097   0.85290   0.86231
 Alpha virt. eigenvalues --    0.86394   0.87219   0.87570   0.87822   0.88674
 Alpha virt. eigenvalues --    0.89031   0.89685   0.90583   0.91602   0.92260
 Alpha virt. eigenvalues --    0.93278   0.93377   0.95142   0.96468   0.97083
 Alpha virt. eigenvalues --    0.97633   0.98912   1.00556   1.01196   1.02212
 Alpha virt. eigenvalues --    1.03315   1.04284   1.05488   1.05809   1.07007
 Alpha virt. eigenvalues --    1.07560   1.08948   1.10644   1.10952   1.11254
 Alpha virt. eigenvalues --    1.12751   1.14434   1.15018   1.17054   1.17396
 Alpha virt. eigenvalues --    1.18902   1.20085   1.21248   1.21539   1.23790
 Alpha virt. eigenvalues --    1.24200   1.26640   1.27228   1.29332   1.31321
 Alpha virt. eigenvalues --    1.34338   1.36995   1.37264   1.38599   1.39674
 Alpha virt. eigenvalues --    1.40394   1.41802   1.43362   1.44275   1.46178
 Alpha virt. eigenvalues --    1.46748   1.47513   1.48367   1.48710   1.49009
 Alpha virt. eigenvalues --    1.50365   1.50701   1.52027   1.52697   1.53202
 Alpha virt. eigenvalues --    1.53422   1.55191   1.56461   1.56899   1.57278
 Alpha virt. eigenvalues --    1.58841   1.59894   1.61402   1.62614   1.64160
 Alpha virt. eigenvalues --    1.65025   1.65566   1.67176   1.67976   1.70335
 Alpha virt. eigenvalues --    1.73292   1.73361   1.75104   1.75500   1.77218
 Alpha virt. eigenvalues --    1.79151   1.81889   1.84106   1.85892   1.86845
 Alpha virt. eigenvalues --    1.87302   1.90276   1.90759   1.93203   1.96324
 Alpha virt. eigenvalues --    1.96567   2.00990   2.02659   2.03715   2.04016
 Alpha virt. eigenvalues --    2.06454   2.09501   2.13852   2.15305   2.19948
 Alpha virt. eigenvalues --    2.23440   2.25054   2.31840   2.33059   2.33754
 Alpha virt. eigenvalues --    2.34100   2.34670   2.35191   2.36323   2.37454
 Alpha virt. eigenvalues --    2.37822   2.39199   2.39662   2.46342   2.49980
 Alpha virt. eigenvalues --    2.56431   2.59236   2.62986   2.65776   2.67732
 Alpha virt. eigenvalues --    2.70404   2.73045   2.76152   2.88198   2.93262
 Alpha virt. eigenvalues --    2.95751   3.02696   3.05120   3.08792   3.10613
 Alpha virt. eigenvalues --    3.18082   3.21017   3.28870   3.52999   3.68739
          Condensed to atoms (all electrons):
 Mulliken charges:
               1
     1  C    0.790691
     2  C   -0.271070
     3  S    0.384271
     4  S    0.308435
     5  C    0.854751
     6  C    0.923299
     7  C    0.487472
     8  N   -0.900581
     9  S    0.558405
    10  C   -1.006825
    11  N   -0.103428
    12  C   -0.989199
    13  N   -0.113330
    14  C   -0.808631
    15  N   -0.114260
 Sum of Mulliken charges =  -0.00000
 Mulliken charges with hydrogens summed into heavy atoms:
               1
     1  C    0.790691
     2  C   -0.271070
     3  S    0.384271
     4  S    0.308435
     5  C    0.854751
     6  C    0.923299
     7  C    0.487472
     8  N   -0.900581
     9  S    0.558405
    10  C   -1.006825
    11  N   -0.103428
    12  C   -0.989199
    13  N   -0.113330
    14  C   -0.808631
    15  N   -0.114260
 Electronic spatial extent (au):  <R**2>=          21928.1065
 Charge=              0.0000 electrons
 Dipole moment (field-independent basis, Debye):
    X=             -0.1857    Y=             -4.7681    Z=             -0.3210  Tot=              4.7825

 Test job not archived.
 1\1\GINC-CHIMERA-NODE41\SP\RM05\Gen\C8N4S3\CONNORNM\20-Jan-2019\0\\#T 
 M05/Gen test Massage SCF=(fermi,maxcyc=60)\\M05 opt\\0,1\C,0,-0.665999
 54,-0.67042169,5.97505532\C,0,0.58832663,-1.24577937,6.32356078\S,0,-1
 .40472557,0.7084001,6.77608651\S,0,1.63440613,-0.63743041,7.61592975\C
 ,0,0.04092628,1.62741955,7.23392496\C,0,1.24432792,1.09072445,7.567731
 65\C,0,-1.24680558,-1.40345187,4.9598537\N,0,0.96723158,-2.31189624,5.
 66198246\S,0,-0.20763934,-2.7320554,4.56013786\C,0,-0.17903461,3.03505
 231,7.26965831\N,0,-0.41320695,4.172992,7.3077319\C,0,2.33342142,1.919
 87981,7.96812978\N,0,3.2384125,2.55426425,8.32795427\C,0,-2.49368274,-
 1.18979059,4.32360324\N,0,-3.5181957,-1.0349359,3.79683087\\Version=AS
 64L-G09RevD.01\HF=-1725.0548853\RMSD=7.655e-09\Dipole=-0.0730591,-1.87
 5901,-0.1262835\Quadrupole=-4.0367757,-1.5987561,5.6355318,-3.7211745,
 -9.3700924,-25.8184949\PG=C01 [X(C8N4S3)]\\@


 IT'S WHAT YOU LEARN AFTER YOU KNOW IT ALL
 THAT COUNTS.
 Job cpu time:       0 days  1 hours 33 minutes 12.3 seconds.
 File lengths (MBytes):  RWF=     58 Int=      0 D2E=      0 Chk=      6 Scr=      1
 Normal termination of Gaussian 09 at Sun Jan 20 15:36:46 2019.
