 Entering Gaussian System, Link 0=/data/szalewicgrp/connornm/opt/Gaussian/g09-M05-par/g09/g09
 AtFile(1): aug-cc-pVTZ.gbs
 Initial command:
 /data/szalewicgrp/connornm/opt/Gaussian/g09-M05-par/g09/l1.exe "/scratch/local/Gau-23321.inp" -scrdir="/scratch/local/"
 Entering Link 1 = /data/szalewicgrp/connornm/opt/Gaussian/g09-M05-par/g09/l1.exe PID=     23322.
  
 Copyright (c) 1988,1990,1992,1993,1995,1998,2003,2009,2013,
            Gaussian, Inc.  All Rights Reserved.
  
 This is part of the Gaussian(R) 09 program.  It is based on
 the Gaussian(R) 03 system (copyright 2003, Gaussian, Inc.),
 the Gaussian(R) 98 system (copyright 1998, Gaussian, Inc.),
 the Gaussian(R) 94 system (copyright 1995, Gaussian, Inc.),
 the Gaussian 92(TM) system (copyright 1992, Gaussian, Inc.),
 the Gaussian 90(TM) system (copyright 1990, Gaussian, Inc.),
 the Gaussian 88(TM) system (copyright 1988, Gaussian, Inc.),
 the Gaussian 86(TM) system (copyright 1986, Carnegie Mellon
 University), and the Gaussian 82(TM) system (copyright 1983,
 Carnegie Mellon University). Gaussian is a federally registered
 trademark of Gaussian, Inc.
  
 This software contains proprietary and confidential information,
 including trade secrets, belonging to Gaussian, Inc.
  
 This software is provided under written license and may be
 used, copied, transmitted, or stored only in accord with that
 written license.
  
 The following legend is applicable only to US Government
 contracts under FAR:
  
                    RESTRICTED RIGHTS LEGEND
  
 Use, reproduction and disclosure by the US Government is
 subject to restrictions as set forth in subparagraphs (a)
 and (c) of the Commercial Computer Software - Restricted
 Rights clause in FAR 52.227-19.
  
 Gaussian, Inc.
 340 Quinnipiac St., Bldg. 40, Wallingford CT 06492
  
  
 ---------------------------------------------------------------
 Warning -- This program may not be used in any manner that
 competes with the business of Gaussian, Inc. or will provide
 assistance to any competitor of Gaussian, Inc.  The licensee
 of this program is prohibited from giving any competitor of
 Gaussian, Inc. access to this program.  By using this program,
 the user acknowledges that Gaussian, Inc. is engaged in the
 business of creating and licensing software in the field of
 computational chemistry and represents and warrants to the
 licensee that it is not a competitor of Gaussian, Inc. and that
 it will not use this program in any manner prohibited above.
 ---------------------------------------------------------------
  

 Cite this work as:
 Gaussian 09, Revision D.01,
 M. J. Frisch, G. W. Trucks, H. B. Schlegel, G. E. Scuseria, 
 M. A. Robb, J. R. Cheeseman, G. Scalmani, V. Barone, B. Mennucci, 
 G. A. Petersson, H. Nakatsuji, M. Caricato, X. Li, H. P. Hratchian, 
 A. F. Izmaylov, J. Bloino, G. Zheng, J. L. Sonnenberg, M. Hada, 
 M. Ehara, K. Toyota, R. Fukuda, J. Hasegawa, M. Ishida, T. Nakajima, 
 Y. Honda, O. Kitao, H. Nakai, T. Vreven, J. A. Montgomery, Jr., 
 J. E. Peralta, F. Ogliaro, M. Bearpark, J. J. Heyd, E. Brothers, 
 K. N. Kudin, V. N. Staroverov, T. Keith, R. Kobayashi, J. Normand, 
 K. Raghavachari, A. Rendell, J. C. Burant, S. S. Iyengar, J. Tomasi, 
 M. Cossi, N. Rega, J. M. Millam, M. Klene, J. E. Knox, J. B. Cross, 
 V. Bakken, C. Adamo, J. Jaramillo, R. Gomperts, R. E. Stratmann, 
 O. Yazyev, A. J. Austin, R. Cammi, C. Pomelli, J. W. Ochterski, 
 R. L. Martin, K. Morokuma, V. G. Zakrzewski, G. A. Voth, 
 P. Salvador, J. J. Dannenberg, S. Dapprich, A. D. Daniels, 
 O. Farkas, J. B. Foresman, J. V. Ortiz, J. Cioslowski, 
 and D. J. Fox, Gaussian, Inc., Wallingford CT, 2013.
 
 ******************************************
 Gaussian 09:  AS64L-G09RevD.01 24-Apr-2013
                24-Dec-2018 
 ******************************************
 %Chk=BLIND_dimer00100
 %Mem=2GB
 %NProcShared=16
 Will use up to   16 processors via shared memory.
 ----------------------------------------------
 #T M05/Gen test Massage SCF=(tight,maxcyc=120)
 ----------------------------------------------
 -------
 M05 opt
 -------
 Symbolic Z-matrix:
 Charge =  0 Multiplicity = 1
 6                    -0.90331   0.37089  -0.29595 
 6                    -0.86077  -1.05047  -0.23454 
 16                    0.02778   1.45653   0.72531 
 16                    0.17404  -1.96542   0.87298 
 6                     1.49868   0.49471   0.96091 
 6                     1.55322  -0.86217   1.02035 
 6                    -1.83938   0.76728  -1.22973 
 7                    -1.66617  -1.71261  -1.02875 
 16                   -2.58439  -0.64135  -1.91204 
 6                     2.66671   1.29237   1.13567 
 7                     3.58637   1.98481   1.29672 
 6                     2.7854   -1.53852   1.26165 
 7                     3.76086  -2.12975   1.48492 
 6                    -2.2098    2.08307  -1.5994 
 7                    -2.53285   3.15601  -1.90848 
 6                     0.76614  -0.47721   6.13615 
 6                     0.02061  -1.31997   5.26449 
 16                    1.01505   1.24754   5.90858 
 16                   -0.81331  -0.75312   3.80921 
 6                    -0.51348   1.69331   5.1282 
 6                    -1.2355    0.89815   4.2951 
 6                     1.32327  -1.23284   7.14804 
 7                    -0.01656  -2.59897   5.54843 
 16                    0.89643  -2.89572   6.90832 
 6                    -0.92253   3.02696   5.42001 
 7                    -1.20214   4.12769   5.6678 
 6                    -2.43185   1.37201   3.68018 
 7                    -3.39539   1.72576   3.13485 
 6                     2.14454  -0.80088   8.21767 
 7                     2.82726  -0.46549   9.09659 
 
                    Distance matrix (angstroms):
                    1          2          3          4          5
     1  C    0.000000
     2  C    1.423315   0.000000
     3  S    1.757418   2.827694   0.000000
     4  S    2.825849   1.770477   3.428253   0.000000
     5  C    2.713774   3.063280   1.773167   2.795470   0.000000
     6  C    3.047557   2.727187   2.791121   1.772288   1.359281
     7  C    1.380327   2.291783   2.789903   3.992857   4.001979
     8  N    2.336642   1.310672   3.998700   2.658358   4.341342
     9  S    2.542129   2.439721   4.263822   4.137445   5.120151
    10  C    3.955208   4.450782   2.675676   4.110426   1.425163
    11  N    5.029770   5.597745   3.642685   5.237162   2.586817
    12  C    4.436049   3.971317   4.106384   2.674416   2.424897
    13  N    5.583831   5.047859   5.232040   3.642352   3.504263
    14  C    2.517432   3.674472   3.286888   5.309014   4.778168
    15  N    3.607292   4.826214   4.047461   6.425950   5.618639
    16  C    6.699119   6.600086   5.793242   5.501480   5.316423
    17  C    5.884822   5.575737   5.321008   4.441344   4.898834
    18  S    6.553232   6.821842   5.280594   6.032224   5.027936
    19  S    4.257210   4.054949   3.885925   3.326561   3.874948
    20  C    5.596617   6.033895   4.442344   5.653838   4.780346
    21  C    4.633149   4.945216   3.827669   4.679500   4.330738
    22  C    7.933635   7.701025   7.082542   6.421351   6.426178
    23  N    6.615370   6.045932   6.301704   4.722024   5.736911
    24  S    8.112416   7.583746   7.610927   6.149198   6.872369
    25  C    6.302957   6.971598   5.040789   6.841186   5.670812
    26  N    7.054731   7.859233   5.751180   7.874658   6.530530
    27  C    4.375880   4.864338   3.845547   5.080310   4.859341
    28  N    4.451581   5.048225   4.194820   5.610862   5.494856
    29  C    9.118335   8.974072   8.106286   7.693075   7.399743
    30  N   10.140827  10.050558   9.033794   8.770236   8.299178
                    6          7          8          9         10
     6  C    0.000000
     7  C    4.384939   0.000000
     8  N    3.909794   2.494036   0.000000
     9  S    5.076167   1.733444   1.664607   0.000000
    10  C    2.428007   5.116215   5.699860   6.371958   0.000000
    11  N    3.509330   6.107712   6.831389   7.434461   1.162408
    12  C    1.426163   5.736923   5.009263   6.301738   2.836178
    13  N    2.587713   6.864751   5.995430   7.349618   3.609722
    14  C    5.449573   1.416040   3.876636   2.767765   5.646781
    15  N    6.435818   2.578302   5.022796   3.797715   6.306769
    16  C    5.190291   7.911615   7.666685   8.719306   5.634569
    17  C    4.535553   7.070438   6.527195   7.664800   5.556376
    18  S    5.351204   7.702854   8.004873   8.813968   5.050810
    19  S    3.659254   5.362403   5.005381   5.990151   4.841735
    20  C    5.260816   6.560395   7.130003   7.700924   5.120019
    21  C    4.647543   5.559277   5.945155   6.535912   5.036326
    22  C    6.143196   9.175505   8.719334   9.884569   6.658084
    23  N    5.097468   7.784456   6.838575   8.129243   6.466444
    24  S    6.263779   9.334351   8.423998   9.746642   7.348300
    25  C    6.372732   7.082785   8.037598   8.365241   5.852090
    26  N    7.354563   7.698992   8.897653   9.061371   6.599031
    27  C    5.286504   4.982369   5.681126   5.945575   5.698788
    28  N    5.971373   4.731752   5.669937   5.633125   6.397935
    29  C    7.221828  10.372272  10.042355  11.180301   7.403311
    30  N    8.185730  11.398687  11.147583  12.268118   8.154265
                   11         12         13         14         15
    11  N    0.000000
    12  C    3.613393   0.000000
    13  N    4.122555   1.162293   0.000000
    14  C    6.480188   6.800997   7.931563   0.000000
    15  N    7.006418   7.769948   8.891861   1.162367   0.000000
    16  C    6.118443   5.381867   5.773487   8.674671   9.423356
    17  C    6.275303   4.869759   5.378696   7.979246   8.832103
    18  S    5.331470   5.700020   6.205994   8.213864   8.794107
    19  S    5.759003   4.478577   5.312297   6.264758   7.136532
    20  C    5.619074   6.023080   6.794060   6.949095   7.465396
    21  C    5.781137   5.595242   6.482964   6.090846   6.727962
    22  C    7.050731   6.072952   6.230338   9.999777  10.777395
    23  N    7.215897   5.229909   5.567863   8.821747   9.749718
    24  S    7.908567   6.106968   6.181012  10.335294  11.230289
    25  C    6.198211   7.203073   8.000669   7.198617   7.504436
    26  N    6.828483   8.211002   9.015733   7.616306   7.753390
    27  C    6.501960   6.445170   7.445214   5.331874   5.867369
    28  N    7.224326   7.236476   8.294527   4.893509   5.312704
    29  C    7.598580   7.024308   7.050405  11.119899  11.835275
    30  N    8.210854   7.908180   7.847216  12.094264  12.765480
                   16         17         18         19         20
    16  C    0.000000
    17  C    1.423315   0.000000
    18  S    1.757418   2.827694   0.000000
    19  S    2.825849   1.770477   3.428253   0.000000
    20  C    2.713774   3.063280   1.773167   2.795470   0.000000
    21  C    3.047557   2.727187   2.791121   1.772288   1.359281
    22  C    1.380327   2.291783   2.789903   3.992857   4.001979
    23  N    2.336642   1.310672   3.998700   2.658358   4.341342
    24  S    2.542129   2.439721   4.263822   4.137445   5.120151
    25  C    3.955208   4.450782   2.675676   4.110426   1.425163
    26  N    5.029770   5.597745   3.642685   5.237162   2.586817
    27  C    4.436049   3.971317   4.106384   2.674416   2.424897
    28  N    5.583831   5.047859   5.232040   3.642352   3.504263
    29  C    2.517432   3.674472   3.286888   5.309014   4.778168
    30  N    3.607292   4.826214   4.047461   6.425950   5.618639
                   21         22         23         24         25
    21  C    0.000000
    22  C    4.384939   0.000000
    23  N    3.909794   2.494036   0.000000
    24  S    5.076167   1.733444   1.664607   0.000000
    25  C    2.428007   5.116215   5.699860   6.371958   0.000000
    26  N    3.509330   6.107712   6.831389   7.434461   1.162408
    27  C    1.426163   5.736923   5.009263   6.301738   2.836178
    28  N    2.587713   6.864751   5.995430   7.349618   3.609722
    29  C    5.449573   1.416040   3.876636   2.767765   5.646781
    30  N    6.435818   2.578302   5.022796   3.797715   6.306769
                   26         27         28         29         30
    26  N    0.000000
    27  C    3.613393   0.000000
    28  N    4.122555   1.162293   0.000000
    29  C    6.480188   6.800997   7.931563   0.000000
    30  N    7.006418   7.769948   8.891861   1.162367   0.000000
 Symmetry turned off by external request.
 Framework group  C1[X(C16N8S6)]
 Deg. of freedom    84
 Rotational constants (GHZ):      0.1797206      0.0787974      0.0710525
  1404 basis functions,  2412 primitive gaussians,  1674 cartesian basis functions
   124 alpha electrons      124 beta electrons
       nuclear repulsion energy      3636.8224290691 Hartrees.
 IMHF & INEx in M05                  599485                  400514
 NAtoms=   30 NActive=   30 NUniq=   30 SFac= 1.00D+00 NAtFMM=   60 NAOKFM=F Big=F
 ExpMin= 3.51D-02 ExpMax= 3.74D+05 ExpMxC= 1.18D+03 IAcc=3 IRadAn=         5 AccDes= 0.00D+00
 Harris functional with IExCor= 1009 and IRadAn=       5 diagonalized for initial guess.
 HarFok:  IExCor= 1009 AccDes= 0.00D+00 IRadAn=         5 IDoV= 1 UseB2=F ITyADJ=14
 ICtDFT=  3500011 ScaDFX=  1.000000  1.000000  1.000000  1.000000
 FoFCou: FMM=F IPFlag=           0 FMFlag=      100000 FMFlg1=           0
         NFxFlg=           0 DoJE=T BraDBF=F KetDBF=T FulRan=T
         wScrn=  0.000000 ICntrl=     500 IOpCl=  0 I1Cent=   200000004 NGrid=           0
         NMat0=    1 NMatS0=      1 NMatT0=    0 NMatD0=    1 NMtDS0=    0 NMtDT0=    0
 Symmetry not used in FoFCou.
 Restarting incremental Fock formation.
 SCF Done:  E(RM05) =  -3448.63725153     A.U. after   30 cycles
            NFock= 30  Conv=0.32D-08     -V/T= 2.0046

 **********************************************************************

            Population analysis using the SCF density.

 **********************************************************************

 Alpha  occ. eigenvalues --  -90.54790 -90.54705 -90.52320 -90.52235 -90.51817
 Alpha  occ. eigenvalues --  -90.51694 -15.06584 -15.06451 -15.02826 -15.02782
 Alpha  occ. eigenvalues --  -15.02782 -15.02684 -15.02611 -15.02535 -10.88669
 Alpha  occ. eigenvalues --  -10.88600 -10.88557 -10.88484 -10.88241 -10.88158
 Alpha  occ. eigenvalues --  -10.87263 -10.87204 -10.85977 -10.85914 -10.82657
 Alpha  occ. eigenvalues --  -10.82649 -10.82538 -10.82454 -10.82426 -10.82251
 Alpha  occ. eigenvalues --   -8.57159  -8.57072  -8.54983  -8.54887  -8.54556
 Alpha  occ. eigenvalues --   -8.54419  -6.39863  -6.39774  -6.39527  -6.39439
 Alpha  occ. eigenvalues --   -6.39320  -6.39233  -6.37713  -6.37614  -6.37424
 Alpha  occ. eigenvalues --   -6.37326  -6.37268  -6.37139  -6.37054  -6.36988
 Alpha  occ. eigenvalues --   -6.36956  -6.36853  -6.36614  -6.36481  -1.20435
 Alpha  occ. eigenvalues --   -1.20320  -1.13093  -1.13047  -1.11859  -1.11677
 Alpha  occ. eigenvalues --   -1.11496  -1.11454  -1.07843  -1.07732  -1.03824
 Alpha  occ. eigenvalues --   -1.03738  -0.98943  -0.98847  -0.97512  -0.97491
 Alpha  occ. eigenvalues --   -0.88249  -0.88037  -0.84758  -0.84687  -0.82361
 Alpha  occ. eigenvalues --   -0.82292  -0.74087  -0.74056  -0.71563  -0.71429
 Alpha  occ. eigenvalues --   -0.68075  -0.68051  -0.64910  -0.64829  -0.60394
 Alpha  occ. eigenvalues --   -0.59749  -0.57595  -0.57539  -0.56351  -0.55653
 Alpha  occ. eigenvalues --   -0.53972  -0.53781  -0.52997  -0.52824  -0.52613
 Alpha  occ. eigenvalues --   -0.52518  -0.52320  -0.52310  -0.51403  -0.51273
 Alpha  occ. eigenvalues --   -0.50761  -0.50547  -0.49775  -0.49594  -0.48849
 Alpha  occ. eigenvalues --   -0.48812  -0.47110  -0.46980  -0.46771  -0.46624
 Alpha  occ. eigenvalues --   -0.46465  -0.46377  -0.45789  -0.45615  -0.44158
 Alpha  occ. eigenvalues --   -0.43986  -0.43702  -0.43261  -0.39996  -0.39946
 Alpha  occ. eigenvalues --   -0.38134  -0.37935  -0.33906  -0.33234
 Alpha virt. eigenvalues --   -0.10124  -0.09966  -0.08710  -0.08609  -0.02675
 Alpha virt. eigenvalues --   -0.02417  -0.01855  -0.01636  -0.01547  -0.01169
 Alpha virt. eigenvalues --   -0.00752  -0.00318  -0.00247   0.00155   0.00654
 Alpha virt. eigenvalues --    0.01086   0.01341   0.01450   0.01635   0.01813
 Alpha virt. eigenvalues --    0.02295   0.02367   0.02520   0.02713   0.03206
 Alpha virt. eigenvalues --    0.03506   0.03759   0.03917   0.04174   0.04637
 Alpha virt. eigenvalues --    0.04814   0.05150   0.05303   0.05547   0.05747
 Alpha virt. eigenvalues --    0.05921   0.06058   0.06173   0.06262   0.06473
 Alpha virt. eigenvalues --    0.06721   0.06955   0.07054   0.07443   0.07585
 Alpha virt. eigenvalues --    0.07919   0.08197   0.08365   0.08468   0.08740
 Alpha virt. eigenvalues --    0.08849   0.09032   0.09225   0.09749   0.09839
 Alpha virt. eigenvalues --    0.09941   0.10341   0.10473   0.10683   0.10929
 Alpha virt. eigenvalues --    0.11069   0.11121   0.11306   0.11574   0.11840
 Alpha virt. eigenvalues --    0.11942   0.12151   0.12432   0.12662   0.12940
 Alpha virt. eigenvalues --    0.13030   0.13167   0.13326   0.13451   0.13862
 Alpha virt. eigenvalues --    0.13913   0.14098   0.14134   0.14322   0.14518
 Alpha virt. eigenvalues --    0.14862   0.15020   0.15144   0.15236   0.15411
 Alpha virt. eigenvalues --    0.15575   0.15598   0.15838   0.16173   0.16449
 Alpha virt. eigenvalues --    0.16517   0.16784   0.16975   0.17197   0.17368
 Alpha virt. eigenvalues --    0.17580   0.18034   0.18261   0.18306   0.18557
 Alpha virt. eigenvalues --    0.18816   0.18854   0.18974   0.19080   0.19242
 Alpha virt. eigenvalues --    0.19577   0.19616   0.19710   0.19853   0.19996
 Alpha virt. eigenvalues --    0.20242   0.20458   0.20530   0.20877   0.21169
 Alpha virt. eigenvalues --    0.21179   0.21350   0.21461   0.21519   0.21914
 Alpha virt. eigenvalues --    0.22010   0.22317   0.22711   0.22743   0.22887
 Alpha virt. eigenvalues --    0.23021   0.23127   0.23410   0.23644   0.23931
 Alpha virt. eigenvalues --    0.24143   0.24384   0.24436   0.24666   0.25032
 Alpha virt. eigenvalues --    0.25145   0.25358   0.25466   0.25909   0.26044
 Alpha virt. eigenvalues --    0.26370   0.26461   0.26606   0.26913   0.26943
 Alpha virt. eigenvalues --    0.26984   0.27315   0.27831   0.27985   0.28240
 Alpha virt. eigenvalues --    0.28402   0.28618   0.28814   0.28897   0.29223
 Alpha virt. eigenvalues --    0.29395   0.29621   0.29790   0.30238   0.30424
 Alpha virt. eigenvalues --    0.30748   0.30888   0.31191   0.31524   0.31790
 Alpha virt. eigenvalues --    0.31922   0.32051   0.32228   0.32398   0.32621
 Alpha virt. eigenvalues --    0.32831   0.32936   0.33474   0.34133   0.34483
 Alpha virt. eigenvalues --    0.34688   0.34882   0.35098   0.35241   0.35510
 Alpha virt. eigenvalues --    0.35658   0.36082   0.36306   0.36504   0.36702
 Alpha virt. eigenvalues --    0.36886   0.37124   0.37444   0.37885   0.37990
 Alpha virt. eigenvalues --    0.38291   0.38621   0.38697   0.38769   0.39065
 Alpha virt. eigenvalues --    0.39662   0.39793   0.40117   0.40145   0.40389
 Alpha virt. eigenvalues --    0.40717   0.41047   0.41260   0.41323   0.41549
 Alpha virt. eigenvalues --    0.41770   0.42017   0.42179   0.42309   0.42816
 Alpha virt. eigenvalues --    0.43004   0.43294   0.43309   0.43754   0.43938
 Alpha virt. eigenvalues --    0.44172   0.44254   0.44387   0.44939   0.45075
 Alpha virt. eigenvalues --    0.45438   0.45626   0.45929   0.46309   0.46520
 Alpha virt. eigenvalues --    0.46682   0.46758   0.47138   0.47527   0.47641
 Alpha virt. eigenvalues --    0.47859   0.48102   0.48434   0.48507   0.48566
 Alpha virt. eigenvalues --    0.48594   0.48992   0.49343   0.49693   0.49886
 Alpha virt. eigenvalues --    0.50114   0.50222   0.50403   0.50895   0.51017
 Alpha virt. eigenvalues --    0.51418   0.51537   0.51900   0.52136   0.52511
 Alpha virt. eigenvalues --    0.52610   0.52763   0.53212   0.53537   0.53701
 Alpha virt. eigenvalues --    0.53926   0.54370   0.54443   0.54845   0.55020
 Alpha virt. eigenvalues --    0.55578   0.55617   0.55765   0.56265   0.56311
 Alpha virt. eigenvalues --    0.56377   0.56611   0.56683   0.57137   0.57308
 Alpha virt. eigenvalues --    0.57826   0.58113   0.58132   0.58308   0.58558
 Alpha virt. eigenvalues --    0.59048   0.59072   0.59344   0.59783   0.59809
 Alpha virt. eigenvalues --    0.60026   0.60259   0.60588   0.60639   0.60956
 Alpha virt. eigenvalues --    0.61190   0.61359   0.61548   0.62006   0.62058
 Alpha virt. eigenvalues --    0.62400   0.62810   0.63166   0.63278   0.63459
 Alpha virt. eigenvalues --    0.63705   0.63869   0.64181   0.64370   0.64644
 Alpha virt. eigenvalues --    0.65019   0.65363   0.65589   0.66013   0.66081
 Alpha virt. eigenvalues --    0.66475   0.66611   0.67125   0.67229   0.67396
 Alpha virt. eigenvalues --    0.68164   0.68418   0.68600   0.68812   0.68935
 Alpha virt. eigenvalues --    0.69386   0.69809   0.70085   0.70126   0.70566
 Alpha virt. eigenvalues --    0.70930   0.71168   0.71314   0.71467   0.71704
 Alpha virt. eigenvalues --    0.71972   0.72374   0.72544   0.72850   0.73107
 Alpha virt. eigenvalues --    0.73272   0.73552   0.73763   0.73914   0.74282
 Alpha virt. eigenvalues --    0.74642   0.74774   0.75036   0.75351   0.75587
 Alpha virt. eigenvalues --    0.75954   0.76323   0.76502   0.77004   0.77171
 Alpha virt. eigenvalues --    0.77459   0.77638   0.77669   0.78037   0.78143
 Alpha virt. eigenvalues --    0.78253   0.78559   0.79082   0.79575   0.79709
 Alpha virt. eigenvalues --    0.79836   0.80432   0.80613   0.80674   0.80906
 Alpha virt. eigenvalues --    0.81070   0.81250   0.81951   0.82157   0.82490
 Alpha virt. eigenvalues --    0.82592   0.83234   0.83458   0.83599   0.83797
 Alpha virt. eigenvalues --    0.84299   0.84467   0.84738   0.84800   0.85336
 Alpha virt. eigenvalues --    0.85660   0.85944   0.86057   0.86464   0.86756
 Alpha virt. eigenvalues --    0.87135   0.87278   0.87569   0.88124   0.88288
 Alpha virt. eigenvalues --    0.88542   0.88999   0.89285   0.89551   0.89691
 Alpha virt. eigenvalues --    0.89963   0.90160   0.90538   0.90678   0.90868
 Alpha virt. eigenvalues --    0.91318   0.91587   0.91775   0.92208   0.92661
 Alpha virt. eigenvalues --    0.92904   0.93132   0.93406   0.93745   0.94076
 Alpha virt. eigenvalues --    0.94452   0.94802   0.95184   0.95265   0.95416
 Alpha virt. eigenvalues --    0.95680   0.96008   0.96199   0.96583   0.97028
 Alpha virt. eigenvalues --    0.97148   0.97623   0.97726   0.97913   0.98219
 Alpha virt. eigenvalues --    0.98697   0.98754   0.99200   0.99446   0.99615
 Alpha virt. eigenvalues --    0.99815   1.00148   1.00706   1.00771   1.01142
 Alpha virt. eigenvalues --    1.01178   1.01352   1.01894   1.02026   1.02193
 Alpha virt. eigenvalues --    1.02842   1.03048   1.03247   1.03380   1.03541
 Alpha virt. eigenvalues --    1.04041   1.04429   1.04522   1.04691   1.05088
 Alpha virt. eigenvalues --    1.05328   1.05447   1.05886   1.06167   1.06563
 Alpha virt. eigenvalues --    1.06622   1.06876   1.07163   1.07512   1.07672
 Alpha virt. eigenvalues --    1.07964   1.08084   1.08261   1.08324   1.08900
 Alpha virt. eigenvalues --    1.09219   1.09552   1.09600   1.09814   1.09958
 Alpha virt. eigenvalues --    1.10469   1.10547   1.10852   1.11114   1.11319
 Alpha virt. eigenvalues --    1.11852   1.11957   1.12489   1.12619   1.12927
 Alpha virt. eigenvalues --    1.13332   1.13619   1.13982   1.14154   1.14437
 Alpha virt. eigenvalues --    1.14839   1.14904   1.15279   1.15520   1.15854
 Alpha virt. eigenvalues --    1.15947   1.16704   1.16808   1.17120   1.17483
 Alpha virt. eigenvalues --    1.17734   1.18099   1.18456   1.18558   1.18640
 Alpha virt. eigenvalues --    1.19258   1.19584   1.19777   1.20063   1.20161
 Alpha virt. eigenvalues --    1.20585   1.20661   1.21050   1.21460   1.21759
 Alpha virt. eigenvalues --    1.21926   1.22382   1.22838   1.23338   1.23706
 Alpha virt. eigenvalues --    1.24113   1.24256   1.24592   1.25327   1.25405
 Alpha virt. eigenvalues --    1.25469   1.26045   1.26413   1.27283   1.27667
 Alpha virt. eigenvalues --    1.28009   1.28131   1.28355   1.29351   1.29478
 Alpha virt. eigenvalues --    1.29511   1.29713   1.29951   1.30316   1.30511
 Alpha virt. eigenvalues --    1.30850   1.31638   1.31935   1.32235   1.33272
 Alpha virt. eigenvalues --    1.33373   1.33868   1.34424   1.34612   1.34906
 Alpha virt. eigenvalues --    1.35316   1.35703   1.36117   1.36509   1.37024
 Alpha virt. eigenvalues --    1.37244   1.37507   1.38111   1.38533   1.38711
 Alpha virt. eigenvalues --    1.39393   1.39795   1.39912   1.40606   1.41192
 Alpha virt. eigenvalues --    1.41368   1.42047   1.42156   1.43013   1.43484
 Alpha virt. eigenvalues --    1.43798   1.44064   1.44700   1.45026   1.45574
 Alpha virt. eigenvalues --    1.45775   1.46220   1.46297   1.46468   1.46850
 Alpha virt. eigenvalues --    1.47081   1.47264   1.47835   1.48327   1.48517
 Alpha virt. eigenvalues --    1.48657   1.49264   1.49705   1.50010   1.50292
 Alpha virt. eigenvalues --    1.50711   1.50926   1.51352   1.51936   1.52122
 Alpha virt. eigenvalues --    1.52612   1.53100   1.53769   1.54063   1.54147
 Alpha virt. eigenvalues --    1.54575   1.55177   1.55449   1.55538   1.56168
 Alpha virt. eigenvalues --    1.56775   1.57138   1.57523   1.57872   1.58267
 Alpha virt. eigenvalues --    1.59091   1.59822   1.60275   1.60319   1.60800
 Alpha virt. eigenvalues --    1.61134   1.61579   1.61918   1.62103   1.62242
 Alpha virt. eigenvalues --    1.62595   1.62743   1.63137   1.63657   1.63972
 Alpha virt. eigenvalues --    1.64151   1.64687   1.64883   1.65611   1.65863
 Alpha virt. eigenvalues --    1.66111   1.66221   1.66665   1.67177   1.67394
 Alpha virt. eigenvalues --    1.67605   1.67954   1.68587   1.69212   1.69872
 Alpha virt. eigenvalues --    1.70511   1.71148   1.71353   1.71912   1.72389
 Alpha virt. eigenvalues --    1.72757   1.72990   1.73406   1.73632   1.74098
 Alpha virt. eigenvalues --    1.74579   1.75010   1.75444   1.75574   1.76230
 Alpha virt. eigenvalues --    1.76573   1.77027   1.77443   1.77536   1.77705
 Alpha virt. eigenvalues --    1.78245   1.78322   1.78638   1.78843   1.79791
 Alpha virt. eigenvalues --    1.79939   1.80326   1.80688   1.81182   1.81475
 Alpha virt. eigenvalues --    1.81756   1.82019   1.82547   1.83037   1.83125
 Alpha virt. eigenvalues --    1.83746   1.83919   1.84451   1.85115   1.85128
 Alpha virt. eigenvalues --    1.85454   1.85805   1.86158   1.86415   1.87061
 Alpha virt. eigenvalues --    1.87271   1.87480   1.88067   1.88684   1.88847
 Alpha virt. eigenvalues --    1.89487   1.89955   1.90634   1.90722   1.90975
 Alpha virt. eigenvalues --    1.91404   1.91749   1.92536   1.92847   1.93005
 Alpha virt. eigenvalues --    1.93440   1.93974   1.94243   1.94447   1.94975
 Alpha virt. eigenvalues --    1.95219   1.95551   1.96070   1.96660   1.97481
 Alpha virt. eigenvalues --    1.97767   1.98432   1.98682   1.98945   1.99350
 Alpha virt. eigenvalues --    1.99556   2.00412   2.00865   2.01029   2.01548
 Alpha virt. eigenvalues --    2.02010   2.02341   2.02759   2.03256   2.03610
 Alpha virt. eigenvalues --    2.04113   2.05390   2.05844   2.06221   2.06478
 Alpha virt. eigenvalues --    2.06903   2.07256   2.08003   2.08501   2.08829
 Alpha virt. eigenvalues --    2.09050   2.09506   2.09860   2.10759   2.11352
 Alpha virt. eigenvalues --    2.11502   2.11680   2.12491   2.13155   2.13221
 Alpha virt. eigenvalues --    2.13591   2.14070   2.14665   2.15212   2.15664
 Alpha virt. eigenvalues --    2.15931   2.16413   2.16886   2.17569   2.17777
 Alpha virt. eigenvalues --    2.17992   2.18167   2.18676   2.19115   2.19522
 Alpha virt. eigenvalues --    2.19657   2.19886   2.20359   2.21088   2.21555
 Alpha virt. eigenvalues --    2.21922   2.22096   2.23542   2.23722   2.24048
 Alpha virt. eigenvalues --    2.24943   2.25231   2.25943   2.26798   2.27165
 Alpha virt. eigenvalues --    2.27597   2.28000   2.28186   2.28723   2.28784
 Alpha virt. eigenvalues --    2.29137   2.29630   2.29795   2.30705   2.30951
 Alpha virt. eigenvalues --    2.31698   2.32237   2.32629   2.32694   2.33131
 Alpha virt. eigenvalues --    2.33731   2.34488   2.34678   2.35027   2.35427
 Alpha virt. eigenvalues --    2.35856   2.36186   2.36832   2.36955   2.37127
 Alpha virt. eigenvalues --    2.37455   2.38026   2.38436   2.39285   2.39593
 Alpha virt. eigenvalues --    2.40482   2.40954   2.41344   2.42044   2.42784
 Alpha virt. eigenvalues --    2.43009   2.43582   2.43832   2.44627   2.45497
 Alpha virt. eigenvalues --    2.45929   2.46481   2.46978   2.47340   2.48138
 Alpha virt. eigenvalues --    2.48529   2.48912   2.49244   2.50252   2.51245
 Alpha virt. eigenvalues --    2.51846   2.52163   2.52817   2.54112   2.54660
 Alpha virt. eigenvalues --    2.54707   2.55303   2.56504   2.57569   2.57917
 Alpha virt. eigenvalues --    2.59268   2.59759   2.59828   2.60324   2.61148
 Alpha virt. eigenvalues --    2.61680   2.63340   2.63847   2.64941   2.65484
 Alpha virt. eigenvalues --    2.66757   2.67365   2.67781   2.68567   2.71168
 Alpha virt. eigenvalues --    2.72611   2.73378   2.73662   2.74384   2.74944
 Alpha virt. eigenvalues --    2.75519   2.76160   2.76418   2.76707   2.78042
 Alpha virt. eigenvalues --    2.78444   2.79067   2.79865   2.81039   2.81314
 Alpha virt. eigenvalues --    2.81379   2.82369   2.82900   2.83696   2.84830
 Alpha virt. eigenvalues --    2.85422   2.86320   2.86829   2.87570   2.88776
 Alpha virt. eigenvalues --    2.90151   2.90381   2.90685   2.91048   2.93509
 Alpha virt. eigenvalues --    2.94568   2.96463   2.96819   2.96965   2.98182
 Alpha virt. eigenvalues --    2.98886   2.99639   2.99915   3.00336   3.01237
 Alpha virt. eigenvalues --    3.01625   3.02129   3.02461   3.03429   3.03968
 Alpha virt. eigenvalues --    3.04228   3.05118   3.05665   3.05820   3.06441
 Alpha virt. eigenvalues --    3.07927   3.08758   3.09274   3.09797   3.10739
 Alpha virt. eigenvalues --    3.10891   3.12143   3.13008   3.13239   3.13799
 Alpha virt. eigenvalues --    3.13849   3.14408   3.14850   3.15624   3.16293
 Alpha virt. eigenvalues --    3.16450   3.17248   3.18056   3.18272   3.18398
 Alpha virt. eigenvalues --    3.18716   3.19123   3.19977   3.21124   3.21809
 Alpha virt. eigenvalues --    3.21999   3.22328   3.22544   3.22823   3.23228
 Alpha virt. eigenvalues --    3.23624   3.24354   3.24985   3.25264   3.26002
 Alpha virt. eigenvalues --    3.27982   3.28082   3.28780   3.29145   3.29891
 Alpha virt. eigenvalues --    3.30096   3.30550   3.30993   3.31364   3.31744
 Alpha virt. eigenvalues --    3.32445   3.32575   3.33896   3.34472   3.34771
 Alpha virt. eigenvalues --    3.35218   3.35522   3.35825   3.36056   3.36346
 Alpha virt. eigenvalues --    3.37299   3.37611   3.38680   3.39396   3.39703
 Alpha virt. eigenvalues --    3.41009   3.41146   3.41457   3.41854   3.43077
 Alpha virt. eigenvalues --    3.43514   3.43660   3.44104   3.44354   3.45123
 Alpha virt. eigenvalues --    3.45718   3.45902   3.46100   3.47063   3.47177
 Alpha virt. eigenvalues --    3.48171   3.48707   3.49869   3.50356   3.51120
 Alpha virt. eigenvalues --    3.51507   3.53197   3.53572   3.54236   3.54705
 Alpha virt. eigenvalues --    3.54842   3.55230   3.55933   3.57234   3.58346
 Alpha virt. eigenvalues --    3.58611   3.59268   3.60062   3.60168   3.61068
 Alpha virt. eigenvalues --    3.61564   3.62275   3.62989   3.63276   3.63850
 Alpha virt. eigenvalues --    3.64250   3.64886   3.65134   3.65534   3.66120
 Alpha virt. eigenvalues --    3.66643   3.67173   3.67760   3.68359   3.69061
 Alpha virt. eigenvalues --    3.69663   3.69801   3.69927   3.70589   3.71236
 Alpha virt. eigenvalues --    3.71703   3.72279   3.73039   3.74110   3.74747
 Alpha virt. eigenvalues --    3.75137   3.75428   3.76018   3.76359   3.77035
 Alpha virt. eigenvalues --    3.77311   3.77771   3.78623   3.79695   3.79918
 Alpha virt. eigenvalues --    3.80593   3.80731   3.81647   3.82054   3.82379
 Alpha virt. eigenvalues --    3.83018   3.83480   3.84140   3.85170   3.85355
 Alpha virt. eigenvalues --    3.85738   3.85989   3.86807   3.87477   3.87593
 Alpha virt. eigenvalues --    3.88206   3.89411   3.89433   3.90171   3.90437
 Alpha virt. eigenvalues --    3.90831   3.91577   3.92137   3.93448   3.93983
 Alpha virt. eigenvalues --    3.94265   3.95904   3.96311   3.96919   3.98265
 Alpha virt. eigenvalues --    3.98603   3.99849   4.00558   4.00886   4.01387
 Alpha virt. eigenvalues --    4.01655   4.02239   4.02959   4.04402   4.04601
 Alpha virt. eigenvalues --    4.05165   4.05952   4.06259   4.07343   4.07900
 Alpha virt. eigenvalues --    4.08675   4.09208   4.13264   4.13792   4.14773
 Alpha virt. eigenvalues --    4.15216   4.15877   4.16425   4.17553   4.18022
 Alpha virt. eigenvalues --    4.19386   4.19782   4.21099   4.21758   4.22675
 Alpha virt. eigenvalues --    4.23031   4.23206   4.24617   4.25309   4.26203
 Alpha virt. eigenvalues --    4.27821   4.28529   4.29510   4.30356   4.31369
 Alpha virt. eigenvalues --    4.32711   4.33245   4.33371   4.36428   4.37449
 Alpha virt. eigenvalues --    4.39120   4.41357   4.43792   4.44715   4.46081
 Alpha virt. eigenvalues --    4.47067   4.47721   4.48320   4.48722   4.49004
 Alpha virt. eigenvalues --    4.51161   4.51550   4.52458   4.53406   4.54060
 Alpha virt. eigenvalues --    4.54670   4.61280   4.61948   4.62735   4.62934
 Alpha virt. eigenvalues --    4.63894   4.64404   4.65826   4.66356   4.67345
 Alpha virt. eigenvalues --    4.67484   4.67654   4.67935   4.68528   4.68768
 Alpha virt. eigenvalues --    4.69000   4.69346   4.69713   4.69932   4.70127
 Alpha virt. eigenvalues --    4.70440   4.70574   4.71561   4.76135   4.76353
 Alpha virt. eigenvalues --    4.77707   4.78024   4.79219   4.79340   4.82160
 Alpha virt. eigenvalues --    4.82547   4.82634   4.82717   4.84185   4.84329
 Alpha virt. eigenvalues --    4.85053   4.85724   4.86396   4.87006   4.98319
 Alpha virt. eigenvalues --    4.99338   4.99796   5.00204   5.01017   5.01233
 Alpha virt. eigenvalues --    5.03121   5.03453   5.03673   5.04060   5.04492
 Alpha virt. eigenvalues --    5.05183   5.05845   5.06016   5.07246   5.07618
 Alpha virt. eigenvalues --    5.07859   5.08327   5.16297   5.16865   5.17862
 Alpha virt. eigenvalues --    5.18448   5.19144   5.20820   5.24291   5.25460
 Alpha virt. eigenvalues --    5.26496   5.27110   5.27242   5.27543   5.27868
 Alpha virt. eigenvalues --    5.28341   5.28683   5.29113   5.29610   5.29964
 Alpha virt. eigenvalues --    5.30942   5.31445   5.31802   5.32309   5.32944
 Alpha virt. eigenvalues --    5.33253   5.34170   5.34326   5.38569   5.38820
 Alpha virt. eigenvalues --    5.40873   5.41142   5.43513   5.43916   5.44558
 Alpha virt. eigenvalues --    5.45920   5.46345   5.46497   5.51495   5.52634
 Alpha virt. eigenvalues --    5.52686   5.53559   5.54929   5.55890   5.57612
 Alpha virt. eigenvalues --    5.58608   5.60488   5.61058   5.69314   5.69522
 Alpha virt. eigenvalues --    5.72060   5.72343   5.84782   5.85074   6.02068
 Alpha virt. eigenvalues --    6.02490   6.04138   6.04250   6.08548   6.09281
 Alpha virt. eigenvalues --    6.12525   6.13676   6.17896   6.18584   6.23412
 Alpha virt. eigenvalues --    6.23761   6.25413   6.25916   6.26234   6.26883
 Alpha virt. eigenvalues --    6.30275   6.30916   6.37439   6.38210   6.44195
 Alpha virt. eigenvalues --    6.44682   6.50843   6.50894   6.56166   6.56664
 Alpha virt. eigenvalues --    6.76419   6.77192   7.84457   7.99501   8.22917
 Alpha virt. eigenvalues --    8.25849   9.37109   9.44119  13.31127  13.42900
 Alpha virt. eigenvalues --   14.47970  14.57685  14.81826  14.90506  15.49408
 Alpha virt. eigenvalues --   15.60531  15.84687  15.91737  16.46279  16.59801
 Alpha virt. eigenvalues --   16.72346  16.73674  17.46395  17.50076  18.18292
 Alpha virt. eigenvalues --   18.23030  19.43438  19.44377  19.51703  19.56278
 Alpha virt. eigenvalues --   19.64480  19.69436
          Condensed to atoms (all electrons):
 Mulliken charges:
               1
     1  C    0.622630
     2  C    0.029868
     3  S   -0.386444
     4  S   -0.190893
     5  C    0.369530
     6  C    0.525519
     7  C    0.541420
     8  N   -0.642433
     9  S    0.106886
    10  C    0.421636
    11  N   -0.735035
    12  C    0.304856
    13  N   -0.706797
    14  C    0.465857
    15  N   -0.738556
    16  C    0.692808
    17  C   -0.192816
    18  S   -0.390030
    19  S    0.043498
    20  C    0.719247
    21  C    0.358724
    22  C    0.647136
    23  N   -0.663347
    24  S    0.106189
    25  C    0.234594
    26  N   -0.684102
    27  C    0.358494
    28  N   -0.749821
    29  C    0.202177
    30  N   -0.670797
 Sum of Mulliken charges =  -0.00000
 Mulliken charges with hydrogens summed into heavy atoms:
               1
     1  C    0.622630
     2  C    0.029868
     3  S   -0.386444
     4  S   -0.190893
     5  C    0.369530
     6  C    0.525519
     7  C    0.541420
     8  N   -0.642433
     9  S    0.106886
    10  C    0.421636
    11  N   -0.735035
    12  C    0.304856
    13  N   -0.706797
    14  C    0.465857
    15  N   -0.738556
    16  C    0.692808
    17  C   -0.192816
    18  S   -0.390030
    19  S    0.043498
    20  C    0.719247
    21  C    0.358724
    22  C    0.647136
    23  N   -0.663347
    24  S    0.106189
    25  C    0.234594
    26  N   -0.684102
    27  C    0.358494
    28  N   -0.749821
    29  C    0.202177
    30  N   -0.670797
 Electronic spatial extent (au):  <R**2>=          22213.3628
 Charge=              0.0000 electrons
 Dipole moment (field-independent basis, Debye):
    X=             -2.2420    Y=             -5.8392    Z=             -1.0397  Tot=              6.3406

 Test job not archived.
 1\1\GINC-CHIMERA-NODE14\SP\RM05\Gen\C16N8S6\CONNORNM\25-Dec-2018\0\\#T
  M05/Gen test Massage SCF=(tight,maxcyc=120)\\M05 opt\\0,1\C,0,-0.9033
 0794,0.37088758,-0.29594945\C,0,-0.86076948,-1.05046612,-0.23454257\S,
 0,0.02778481,1.4565252,0.72531147\S,0,0.17404372,-1.96542165,0.8729800
 5\C,0,1.49867966,0.49471231,0.96090944\C,0,1.55322015,-0.86217255,1.02
 034729\C,0,-1.83937823,0.76727679,-1.22973274\N,0,-1.66616684,-1.71260
 633,-1.02875002\S,0,-2.58439013,-0.64135396,-1.91204003\C,0,2.66670528
 ,1.29237396,1.13567122\N,0,3.58637469,1.98480744,1.29672117\C,0,2.7854
 0116,-1.53851756,1.2616548\N,0,3.76085995,-2.12975115,1.48492397\C,0,-
 2.20980296,2.08306592,-1.59939872\N,0,-2.53284526,3.15600908,-1.908482
 14\C,0,0.76613506,-0.47721236,6.13614815\C,0,0.02060903,-1.31996623,5.
 26449253\S,0,1.01504653,1.24754108,5.90858435\S,0,-0.81331492,-0.75311
 979,3.80921102\C,0,-0.51348289,1.69331287,5.12819511\C,0,-1.23549672,0
 .89814614,4.29509849\C,0,1.32327447,-1.23284425,7.14803716\N,0,-0.0165
 5783,-2.59897383,5.54842599\S,0,0.8964283,-2.89572274,6.90832059\C,0,-
 0.92253067,3.02695978,5.42000924\N,0,-1.20213933,4.12769121,5.66780418
 \C,0,-2.43185428,1.37201193,3.68018246\N,0,-3.39539113,1.7257619,3.134
 85335\C,0,2.14453609,-0.80087978,8.21766536\N,0,2.82725594,-0.46549024
 ,9.09658707\\Version=AS64L-G09RevD.01\HF=-3448.6372515\RMSD=3.193e-09\
 Dipole=-0.8820705,-2.2973079,-0.4090407\Quadrupole=-7.6445116,-2.81696
 88,10.4614804,9.3841661,-6.1634869,-15.1387232\PG=C01 [X(C16N8S6)]\\@


 A politician is a person who can make waves and then
 make you think he's the only one who can save the ship.
 -- Ivern Ball
 Job cpu time:       7 days  7 hours 33 minutes 50.3 seconds.
 File lengths (MBytes):  RWF=   1011 Int=      0 D2E=      0 Chk=     69 Scr=      1
 Normal termination of Gaussian 09 at Tue Dec 25 00:58:26 2018.
