       5.7884803559     130.0931281177     324.4927454365     347.7232503074     137.4160173648     200.1048731580       0.0000000000      -5.2202197710      -1.6542444300       6.9919436400      -3.9523294400       3.1234077600      -9.7386352200       0.6243941800      -0.6147562610       0.0000000000       0.0000000000
