       9.3445699995      92.4078495017     342.2229701750     179.5414612035      87.9519011541     117.7904201772       1.0000000000      -2.5881076460      -5.5098571800      10.3499926300      -4.5538092400       3.9632136200      -6.8976783400       0.8624114900      -0.8023806460       0.0000000000       0.0000000000
