       5.5474809688      32.8620923171     149.0475232166     125.8990949633      24.3786001884      74.5899575947       1.0000000000       0.8627211770      -7.5984283700      24.6442201700     -20.4227174900      18.4501248200     -14.5452678900       1.7267662600      -1.3919763230       0.0000000000       0.0000000000
