       8.5266400000     104.1399914161     291.8179922786     179.9999701143      75.8600028285     111.8179880382       1.0000000000     487.4879122120    -430.7465734100    1152.3385936900   -1165.9903144200     266.8670251700     -93.2571431400      -3.3386707000     761.6149950220       0.0000000000       0.0000000000
