       7.8697964605      78.5778339744      88.7388088712     107.1398787276      82.9181174976      86.9534468491       0.0000000000      -1.8560686920      -0.3462285500       0.3717718100      -0.1855928200       0.1056481400      -1.8202792800       0.0354201300      -0.0168081220       0.0000000000       0.0000000000
