       5.3958900002      35.2202691537      62.7991503208       1.9482197324      59.9123597545     249.5025807006       1.0000000000       0.2194563120     -15.3219068900      39.0319946800     -32.0043135900      29.2091940800     -20.2973960300       2.7897822000      -3.1878981480       0.0000000000       0.0000000000
