       5.9190990513     149.9059827046      46.0253336783     143.9494367275     148.3376739788     188.5671472981       0.0000000000       3.1128151930      -6.7019755500      22.3564683700     -22.7251986500      20.6785151800     -10.7277262000       1.8871141300      -1.6543820870       0.0000000000       0.0000000000
