       8.9651800015      96.3183399241     178.3856301428     239.8336498763     102.4728098827     326.4090801261       0.0000000000      -3.6840247550      -8.5127054000      14.9531629400      -7.2052979200       6.1131342300      -8.9824555400       1.1666147600      -1.2164778250       0.0000000000       0.0000000000
