       5.9225050058      50.5086105529     159.0875137109     136.6462002705     153.5423081235     351.7347620282       0.0000000000      34.8358843320     -59.8300295000     143.3295556800    -105.8668830600      83.3505556900     -38.3320902900       6.5721812100       5.6125945920       0.0000000000       0.0000000000
