      10.6044899998      96.4982399317     351.2793201210     178.5577202201      83.5732302538     141.2274101356       1.0000000000       2.3305671230      -2.8498692300      11.2052591100      -4.1843210900       3.7031317900      -5.2097943600       0.7968361900      -1.1306752870       0.0000000000       0.0000000000
