       9.9634690076     131.4553251010      93.6864235802     359.9735877889     131.4355752584      93.6453273769       0.0000000000      -0.2058853700      -0.0105806400       0.0000013600      -0.0133182600       0.0000467700      -0.1834847100       0.0000199900       0.0014301300      -2.7367090125      -2.7367088007
