       5.9942000008     101.6107892312     266.6136702976     325.4368994716      37.9399698678      72.1848901338       0.0000000000      -2.5284206640      -2.7071786100       9.8079679900      -7.1449292400       6.3936107100      -8.7981065200       0.7436027500      -0.8233877340       0.0000000000       0.0000000000
