       6.9476500000     127.0162599718     292.2247999525     180.0000004456      52.9837398176     112.2247997380       1.0000000000      14.8558261630     -32.5656353400      77.2767668400     -50.4996354800      42.5520126500     -23.8162039300       4.2208138500      -2.3122924370       0.0000000000       0.0000000000
