       8.6310293538      42.7624693916     169.2618473062      59.8220017983      84.0342643083     318.7312823921       0.0000000000      -3.6143533100      -2.5835953300       4.1077836300      -1.8454631000       1.4558877600      -4.8298225100       0.3511489600      -0.2702927200      -2.7367099156      -2.7367106255
