       6.8215859597      93.4339997026     289.6426104843      88.3384252016     104.2495029593     259.4430615419       1.0000000000      -1.7126594210      -4.6477963500      11.3475728600      -8.8916971800       8.3092518100      -7.8060006000       0.7849152400      -0.8089052010       0.0000000000       0.0000000000
