       6.1236383736     178.0653561145     129.6145155825     127.5213665655     121.9714840799     160.6200466501       0.0000000000       0.5013848480      -6.2683012800      19.7373458800     -12.8138742600      11.7190624300     -11.7999649100       2.0210861200      -2.0939691420       0.0000000000       0.0000000000
