       5.2961258981     141.5316513846     201.0825618428      79.2257603977     116.9672078206      77.4564540854       0.0000000000      -5.5453711760      -5.4275905100      14.4597432900      -8.0189082800       6.9655159000     -13.7239089700       1.2537998900      -1.0540224860       0.0000000000       0.0000000000
