       6.4919121036     122.0320216130     127.8131391715     168.6867818406      14.0888134580     266.7207130491       1.0000000000      -1.7135489800      -3.0050987900       7.2211192300      -4.1587484200       3.7727578000      -4.8913548100       0.4609684500      -1.1131924300       0.0000000000       0.0000000000
