       9.3849890717      66.4901137019     188.8568688316     278.3753800039      48.7030207746     217.4525641872       1.0000000000      -0.5165914680       0.5440795900       0.2151768300      -0.1888087400       0.0938307500      -1.2052053100       0.0226881800       0.0016472420       0.0000000000       0.0000000000
