       4.9649689368     140.7555352341     257.6122929463     292.9406328540      86.1074729732      91.3767459017       1.0000000000      -2.7028721930     -10.3713893800      26.6715710800     -20.5643320100      18.4481026500     -16.5161559400       1.7497843100      -2.1204529030       0.0000000000       0.0000000000
