       8.9967010491      46.5906511166      37.0968675609     181.6718441100     135.3511438966     101.5980632388       1.0000000000      -0.3412160800      -0.0544274800       0.0000805300      -0.0213577300       0.0000986300      -0.2625286200       0.0000442100      -0.0031256300      -2.7367092595      -2.7367089354
