       5.9831600024      38.4868804646      73.9405389419     331.7593698799     100.6424761730     265.6862886304       0.0000000000      -5.6125118000      -5.5232194400      10.4037030200      -5.6600121600       5.0305056600      -9.7955637900       0.8278746400      -0.8957997300       0.0000000000       0.0000000000
