       7.8723900011      62.3900800476     232.7115300040     159.6705501735     100.7765800161     134.6569299746       0.0000000000     111.1123168840    -113.8628495400     276.9864287900    -208.3089857900     135.3792079600     -43.9091370100       8.9019107100      55.9257417540       0.0000000000       0.0000000000
