       7.6073339995      52.7917299657     302.2873138516       9.0173457818     110.1319751703       7.8094421329       0.0000000000      -6.8558973690      -5.5192798900       7.7765896700      -3.9129949900       3.1225057300      -8.1564113000       0.6584707600      -0.8247773490       0.0000000000       0.0000000000
