       9.9634690076      53.2769176250      42.4762510622     359.9372019556      53.4075400772      42.5385725172       0.0000000000       0.1438750900       0.3081779200       0.0000077600      -0.0150244800       0.0000530800      -0.1495755100       0.0000147300       0.0002215900      -2.7367088296      -2.7367088705
