      10.5461144359      69.0465786071     150.3695290667     160.7981869579      69.3276783405     201.5744030480       0.0000000000      -1.2081818100      -4.0655853200       7.7230009100      -4.2014175000       3.6044108700      -4.2191052900       0.5506557300      -0.6001412100      -2.7367107972      -2.7367123186
