      10.3999999980      71.2194510216     157.0383501067     359.9531938607      71.4620587756     157.0371396346       0.0000000000      -3.2200549500      -3.0907333200       5.3057515300      -2.7088756600       2.0362929200      -4.6266611100       0.4202105300      -0.5560398400       0.0000000000       0.0000000000
