       6.1626700012     137.5014399368     159.2843501329     246.1316001835      68.4151400065     117.7876499954       0.0000000000      20.2962061030     -41.8268226900      98.9853736700     -69.6763113300      57.7004118500     -29.4804906100       5.4146659800      -0.8206207870       0.0000000000       0.0000000000
