       5.2133499990      19.5179479269      25.3844727948     141.1077401977     109.0621737068      85.4869172039       1.0000000000      -5.4035309900      -7.8438306300      19.0154084900     -11.0189283100       9.8140842700     -15.1494508900       1.5419239600      -1.7627379000       0.0000000000       0.0000000000
