       4.7256031992     126.8040326131     263.9999996871      48.0000099211     177.4374404035      96.0000114903       0.0000000000      21.0789977250     -30.1798879400      79.7978085400     -50.4064367800      43.2594903000     -27.8927469500       6.2361601400       0.2646104050       0.0000000000       0.0000000000
