      10.1042399984     138.2234699960      36.2030300122     346.0725099832     119.9732299576     154.3214099669       1.0000000000      -0.8422369560      -0.4815284500       0.0025522200      -0.0346126000       0.0006445100      -0.3296184900       0.0004060900      -0.0000802460       0.0000000000       0.0000000000
