       5.1775629108     142.7212881387     205.4463208757      74.7682947435     116.2514865084      78.4860154681       0.0000000000      -5.2401797390      -7.0594054100      18.5501389800     -10.5640427200       9.3236568300     -15.6981238600       1.5764033300      -1.3688068890       0.0000000000       0.0000000000
