       7.6116738095      43.9515895201     337.2570133184      13.9478382101     149.6799758243      41.3829554857       0.0000000000      -2.1726325150      -8.1226920700      16.2704185800      -8.7425162100       7.5354848600      -8.5576307000       1.1724695400      -1.7281665050       0.0000000000       0.0000000000
