      13.3816400010      76.1307508737     203.9536797565      15.2785866298     103.8692510720      23.9536803778       0.0000000000       0.4932626940       0.7208420300       0.0074735900      -0.0474381700       0.0007471600      -0.1932821900       0.0007756500       0.0041446240       0.0000000000       0.0000000000
