       6.6667799996      96.3604355372     268.6526883440     179.9997207751      83.6418469418      88.6536687519       1.0000000000      67.5372864220     -72.8209255400     183.7170828900    -123.9175378500      90.2364043800     -36.0759854500       6.9866720100      19.4115759820       0.0000000000       0.0000000000
