      12.7207059192     101.5597912444     207.7426161985      61.9472700879      76.8226195980      26.6387564894       1.0000000000      -0.1356085100      -0.0458239200      -0.0000330400      -0.0088035300       0.0000146600      -0.0799950800       0.0000042100      -0.0009718100      -2.7367088572      -2.7367086874
