      10.7759699996      46.1462999578     199.0560099523     179.9388197679     133.8159500171      18.9969999490       0.0000000000      -0.2885283850       0.3658012700       0.0794850300      -0.0854759500       0.0118029000      -0.6696560600       0.0078636900       0.0016507250       0.0000000000       0.0000000000
