       7.6536828039      99.5766311126     358.8988141538     201.5524175916     171.4335602346     142.5049400071       1.0000000000      -2.0771874270      -2.0692495600       4.7763532700      -1.9551506800       1.5508637300      -4.3244700700       0.3236749200      -0.3792090370       0.0000000000       0.0000000000
