       8.5317399976      67.0453199382      19.1339599516       0.0000099815      67.0453099795      19.1339500077       1.0000000000      -1.2632549740      -0.4694796500       0.0110149600      -0.0795913100       0.0040573500      -0.7267590800       0.0016233800      -0.0041206240       0.0000000000       0.0000000000
