       5.4688070030      92.6500571570     246.1575103016     242.6301290754     144.3867203647     260.0951427260       0.0000000000      -6.6558932170      -4.1730313700       9.1049777800      -4.9694451500       4.0983300900     -10.6761674900       0.7770962600      -0.8176533370       0.0000000000       0.0000000000
