       5.2962949813     152.2961056777     349.1013050951     167.8414713276      53.7626765167      49.2225211493       0.0000000000      -3.2951256220      -3.3227972000      13.0648438800     -10.1198383200       8.8893767900     -12.8642438400       1.7642226900      -0.7066896220       0.0000000000       0.0000000000
