       6.2958136025     128.6084571405     208.0304146211      39.1931139735      31.2817888095     247.7402615800       0.0000000000      -2.1572972150      -0.2548213500       3.5962919300      -2.1118859600       1.7606322100      -5.3721955500       0.4835345600      -0.2588530550       0.0000000000       0.0000000000
