       5.8408499993      19.3761295029      82.8261291514     116.4409096047     121.0387499886     180.8666100171       1.0000000000      -2.2596531220      -1.6571347600       8.3561708800      -7.1185197100       6.4704704600      -8.4883699700       0.7463539500      -0.5686239720       0.0000000000       0.0000000000
