       9.2812000005     121.2133300885     307.7748301460      21.0496881721      95.8168600002     204.8227002915       1.0000000000      -0.0509334490      -6.8828572000      16.0815499500     -10.3504592500       9.3500331600      -6.8629939300       1.0732212900      -2.4594274590       0.0000000000       0.0000000000
