       5.8139320191     124.3463478362     211.1945628774     241.7466401023      59.0467985236     112.3815215248       0.0000000000       2.2117121190     -14.3627791900      37.5794375300     -25.9360050600      23.4062384900     -19.4598512700       3.8929956700      -2.9083240510       0.0000000000       0.0000000000
