       8.0176400014      77.3778404711     248.3636184588     152.8950794548      77.3778855752     248.3635979509       0.0000000000      -2.5091127530      -1.3118653300       2.0198681900      -0.8705090000       0.7195799700      -3.0867170000       0.1782442500      -0.1577138430       0.0000000000       0.0000000000
