       9.4756163877      94.0731915012      25.3666821207     180.7318010795      85.2519137046     291.4250198855       1.0000000000      -1.2172031940      -0.8050610000       2.9937985800      -1.1603044100       0.9048676100      -3.1690320200       0.2599057200      -0.2413776640       0.0000000000       0.0000000000
