       6.4000000015      63.2641394228     276.1854703384     359.9947514555      63.2610097210     276.1808705073       0.0000000000      -2.9877273230      -2.9189089400       9.5102874900      -5.2074532300       4.6554841800      -8.9575219600       0.7664945300      -0.8361093930       0.0000000000       0.0000000000
