       9.3917000077      83.8490384588     157.1846872451     348.1699445350      86.1037000106     338.2229942991       1.0000000000      -3.0150765190      -3.0108638300       7.0751960000      -3.6224524900       2.9377364900      -6.3811862400       0.6023423800      -0.6158488390       0.0000000000       0.0000000000
