       7.5365097446      34.1498630730      73.7195436371      14.0061257037      62.5424373990      28.7900383231       0.0000000000      -0.3498910860       0.7667913200       0.0322383400      -0.1225535800       0.0075782300      -1.0463858600       0.0074578200       0.0049826440       0.0000000000       0.0000000000
