      10.0000000002      83.1412495848     209.6827603341       0.1178054381      82.9886912135     209.7206100508       0.0000000000      -2.1309354790      -1.4025125700       2.1292521600      -1.1772616900       0.8928290300      -2.4876432400       0.1740294100      -0.2596285790       0.0000000000       0.0000000000
