       9.6063380804      95.0841543286      24.8748479707     178.3218926405      86.4359498927     290.6489101994       1.0000000000      -1.2958115270      -0.5613050800       2.1311865800      -0.8257508600       0.6072419200      -2.6734460500       0.1889428400      -0.1626808870       0.0000000000       0.0000000000
