       8.2726199998     133.4186400402      17.4163299976     359.9999997329     133.4186399691      17.4163200076       1.0000000000      -5.2233865080      -4.3762523300       5.6739421300      -2.6376276500       2.1043140900      -6.1042444800       0.5122100900      -0.3957283480       0.0000000000       0.0000000000
