      11.4503999988     104.2466647817     270.1245296876     226.7842668727      98.2220830634      41.7879914727       0.0000000000      -0.3966128900      -0.1766793700       0.0005194800      -0.0188677800       0.0001367500      -0.2016601000       0.0000974200      -0.0001592900       0.0000000000       0.0000000000
