       6.9049459009      65.1979912336     348.8627172933     318.3598229723      98.8053529247      65.9627190390       0.0000000000       4.1904372880      -6.7013267000      24.9400611100     -14.9562308300      13.5171086800     -12.0272689900       2.1031514800      -2.6850574720       0.0000000000       0.0000000000
