       4.9613237818      47.6077079357      26.6345742596     184.6022630930     142.0755484711      34.2693346846       0.0000000000       1.5264005030     -15.3105710600      43.2796325400     -22.7676266700      19.9767453100     -22.2024016200       2.8793935400      -4.3287715270       0.0000000000       0.0000000000
