       6.9550300000      82.2171599842     356.3926000188       0.0000000945      82.2171699819     356.3925999537       1.0000000000      -7.5397375170      -5.9582743200      13.2933342200      -7.1360975300       5.8846329700     -13.0541469200       1.0895729000      -1.6587588370       0.0000000000       0.0000000000
