       9.5873546881     118.8020598406       5.1129126905     233.4164066274      75.0595765211     207.3670721566       1.0000000000      -2.4739690360      -2.7452335100       5.1614094900      -2.4451038700       2.1256203900      -4.3252285200       0.3557363100      -0.6011693460       0.0000000000       0.0000000000
