       6.2334172143      25.1123094060     284.8646951248       5.8418499587      97.6918114464     177.7411508651       0.0000000000       0.7199940630      -7.5477066700      25.2792926500     -18.1756874600      16.0512011100     -15.4502545300       2.4451828500      -1.8820338970       0.0000000000       0.0000000000
