       8.1734632311      62.8199448525     303.6378415331      97.4172924030      69.3570473362      43.8267299961       0.0000000000      -1.1931322950      -6.6991120800      13.7344232900      -6.8451928800       6.1825601400      -7.4223889000       1.0629958900      -1.2064177550       0.0000000000       0.0000000000
