      11.6703997471     101.4303899429       3.0253845690     184.5620554008      80.6695585612     130.3820128797       1.0000000000      -0.3466180900       0.3778665700       0.3800118000      -0.1708483300       0.0638118200      -1.0290813300       0.0354201500      -0.0037987600      -2.7367095847      -2.7367103318
