       8.5734432271      62.9381077253     227.6119995130     273.6251016171      68.1720449307     353.6166428972       1.0000000000      -2.2819123210      -0.7762997000       0.6640402400      -0.4114638000       0.2438555700      -1.9924326700       0.0522380200      -0.0618499810       0.0000000000       0.0000000000
