       6.4088141677     102.3742887095     339.1202897911     307.4380107830       0.5692404330     188.5130096610       0.0000000000      42.5646780090     -53.0286006700     136.4000498000     -95.3371365200      78.5009906100     -36.3116785500       9.1906045500       3.1504487990       0.0000000000       0.0000000000
