       8.0994945209     111.4254209942     251.7455070069      76.3529284395      64.7184271439     175.2067416447       1.0000000000      -1.3251551330      -0.3045033600       3.1734359400      -2.1426890800       1.8870495300      -3.9083612300       0.2548311100      -0.2849180330       0.0000000000       0.0000000000
