       5.0971890007      53.0813810431     287.9999999146     191.9999999264     126.8040300074     240.0000000537       0.0000000000       9.6659444540     -22.3751257100      57.0254358600     -33.5265415400      29.5820729500     -21.9847181800       4.5314286100      -3.5866075360       0.0000000000       0.0000000000
