       9.5140599994      82.5659139984     114.3897003835     182.6015972901      90.9606302514     163.1342095991       0.0000000000      -2.0294013600      -3.2641901800       6.4722489500      -3.4823582400       2.9609613600      -4.3474921400       0.4255924700      -0.7941635800       0.0000000000       0.0000000000
