       6.6759300007     100.0718090074     287.1349097336     163.1426119563      33.4361504517     321.9130397485       1.0000000000      -3.5962881740      -2.6984453700       7.2362829900      -3.7315634600       3.1657115100      -7.5359262200       0.6493509900      -0.6816986240       0.0000000000       0.0000000000
