       8.0727219769     148.2563801261     152.0527790899     267.0167172641     120.2128266650      89.3636734164       1.0000000000      -0.5239785600       0.3182269800       0.1792403600      -0.1152355000       0.0301634100      -0.9449500300       0.0142161800      -0.0056399700       0.0000000000       0.0000000000
