       8.1008406013      78.4185931990     119.9999983746      23.9999974442      89.9541615172     167.9999997762       0.0000000000      17.3891715640     -24.4731005800      65.0291477500     -40.7617984500      35.7550428100     -21.8597607500       5.2644922500      -1.5648514560       0.0000000000       0.0000000000
