       6.6607806727      68.2754130727     281.5688179022     342.9378435180      76.3261137986     266.5655913168       0.0000000000      -1.6062698490      -3.7465839100      11.9320162600      -6.3933118700       5.8329580600      -9.5330981000       1.3514318800      -1.0496821690       0.0000000000       0.0000000000
