       6.6521799983     128.0724193371      64.1989996617     359.9999959877     128.0724194191      64.1989992395       1.0000000000      -5.0789013080      -3.2710733900       5.7748787100      -2.6996348200       2.0117812700      -6.8719452300       0.4751861200      -0.4980939680       0.0000000000       0.0000000000
