       5.9332570009      53.0813808178     336.0000000454     240.0000000511      66.3767999601     264.0000000841       0.0000000000      28.9540893250     -33.5205827800      94.8795839300     -80.0264085700      67.3265286500     -29.2055989200       6.6623474800       2.8382195250       0.0000000000       0.0000000000
