       8.6236609989      96.7365849371     158.1973268457     173.5746905116     103.5533620434       2.6441680588       0.0000000000      -7.0818378140      -5.0942053800       6.0541465000      -3.0350090300       2.3078032100      -7.3457925400       0.5485638100      -0.5173443940       0.0000000000       0.0000000000
