      10.0847900008      86.8987898832      50.0140699163       0.0000087012      86.8988296539      50.0140999620       1.0000000000      -1.0614849340      -0.5670547400       0.0090142800      -0.0457936500       0.0019436500      -0.4586087600       0.0010018200      -0.0019875340       0.0000000000       0.0000000000
