       7.9039913649     142.6899922713      52.3002893147     271.0028317752       2.1494041150     286.1450805576       1.0000000000      -1.9083238360      -0.6373775300       0.2628635100      -0.2224129100       0.0717540700      -1.3767247200       0.0273410500      -0.0337673060       0.0000000000       0.0000000000
