       4.4483684165      20.4560109996     196.4868050605     174.4133483561     158.5011788363      24.9742231218       0.0000000000      -5.2866075730     -12.0864461700      32.1969958300     -17.6225883200      15.2986694500     -22.8203056600       2.3947275200      -2.6476602130       0.0000000000       0.0000000000
