       8.0307299985      86.7308199187     324.1401000538      48.5573003590      48.6035500447     123.5626399529       0.0000000000      -5.5921655270      -5.1342208400       8.6203641900      -4.6514976200       3.7529669400      -7.9688039800       0.7481289900      -0.9591031970       0.0000000000       0.0000000000
