       8.7763382905      75.9098862375     198.5941243423     133.1152654185     146.5152207184      40.4863144199       1.0000000000      -1.4887306760      -4.0378689600       8.6660708000      -5.4359050100       4.8275314200      -4.7982260800       0.5204357200      -1.2307685660       0.0000000000       0.0000000000
