       5.3624136738     130.2815344898     177.8042150593     109.1731492251     164.6970037613     252.5497202348       0.0000000000       8.1026954760      -9.0240401300      34.6235025500     -17.8233167500      16.0957091700     -15.8547320600       3.0107838500      -2.9252111540       0.0000000000       0.0000000000
