       7.8809569565      79.3009856042     296.2464223928     354.3013510105     116.2340022385     290.3297500634       1.0000000000      -1.9936177550      -4.0043231500      10.0569493700      -5.6313826700       5.0542681700      -7.1798812300       0.7385105700      -1.0277588150       0.0000000000       0.0000000000
