       8.5065951465      67.4930669557     112.5670234846     337.4916083472      22.7098105850     261.6295771876       0.0000000000      -2.1595136490      -0.9494208800       0.2616755700      -0.2460044100       0.0730134200      -1.2771994800       0.0235346600      -0.0451125390       0.0000000000       0.0000000000
