       4.1062936002     177.4374398538     216.0000024996      95.9999977785     143.0385300790     168.0000005070       0.0000000000      17.1469012690     -29.2558074400      79.6805823200     -70.3370704600      60.6161150700     -29.7702339000       6.2305179200      -0.0172022410       0.0000000000       0.0000000000
