      14.3493436242     106.5064810195     165.9343044206     174.4891022307      72.8304113252     330.0095540463       1.0000000000      -0.0973670500      -0.0620271400      -0.0000034700      -0.0025835500       0.0000009200      -0.0340612600       0.0000001900       0.0013072600      -2.7367086256      -2.7367086569
