       5.2648976331     135.2371828137      11.4955375880     204.7874960248     157.7204003831     278.3567980125       0.0000000000      16.4727170270     -35.9785556800      88.6373015300     -82.2768667100      71.7430963200     -31.6645243200       7.0367649900      -1.0244991030       0.0000000000       0.0000000000
