       7.4151578789     126.8855271023     188.4492373735     322.6668477845      39.9138055812      81.2247454829       0.0000000000      -0.6007656280       0.7749734900       0.0726849500      -0.1384252100       0.0252110700      -1.3530725400       0.0171251000       0.0007375120       0.0000000000       0.0000000000
