       5.8626265974     125.6886339865     178.9587021735      87.2653915486     152.9890576244     168.0626250704       1.0000000000      -1.1947012710      -3.8314176100      11.1807953300      -7.2002704000       6.5172876600      -7.3907770500       0.6843866200      -1.1547058210       0.0000000000       0.0000000000
