      10.4501200059     117.8405393538     169.9772501241       1.3276077386      80.8824091642     331.4755654773       1.0000000000      -1.5703797250      -0.6743273300       0.2521831100      -0.2092929700       0.0687541800      -0.9933571300       0.0221761000      -0.0365156950       0.0000000000       0.0000000000
