       7.7819393668      66.0692634058      58.2214455087     359.5630385557      98.0974118825      29.8918986231       0.0000000000      -3.3319086810      -2.3151324200       4.1332534700      -2.0314073200       1.7059180600      -5.0409137600       0.5818307600      -0.3654574810       0.0000000000       0.0000000000
