       4.8010767939     161.3917205335     124.1947464385      42.1806188076      85.3972340805      78.1304095113       1.0000000000      -4.7828837050      -5.9026824100      17.0648863700      -9.4445244900       8.3417617900     -14.6807135600       1.3410695800      -1.5026809850       0.0000000000       0.0000000000
