       8.3936100019      75.6401869193     228.4451703852      25.1243586196     104.3597894773      48.4451600773       0.0000000000      -2.8862624360      -3.7635651200       7.8827592900      -3.5870839000       3.0082105700      -6.3694377200       0.6438781800      -0.7010237260       0.0000000000       0.0000000000
