       7.8909967175      83.2985291564     263.1974242741     209.2050075626     120.2310380490     227.2824311351       1.0000000000      -0.9824570080       0.2957704400       0.2408688600      -0.1515821800       0.0820660300      -1.4647115700       0.0230069700      -0.0078755680       0.0000000000       0.0000000000
