       9.6470849657     124.6970133345     329.1479659199      37.7817112557      91.7310774733     185.6642675731       0.0000000000      -1.1702604930       0.0671952400       1.0325916600      -0.6216268100       0.4309623300      -2.0824755100       0.0859843700      -0.0828917630       0.0000000000       0.0000000000
