       9.6000000003      65.0593498866     181.4688901279       0.1643261695      64.8698903969     181.5124401653       0.0000000000      -3.4153485050      -2.9515351700       5.5449940800      -2.7080597100       2.2308530500      -5.3755980400       0.4551603600      -0.6111630750       0.0000000000       0.0000000000
