       8.7615199992     100.4092884158     269.4197508120     103.7565420735      87.3138607415      99.1295807102       1.0000000000      -1.8093505230      -1.0862267500       1.4896757200      -0.6465599400       0.4900300000      -2.0356035300       0.1149047600      -0.1355707830       0.0000000000       0.0000000000
