       7.6492855108     102.0589913235      45.6631633374     184.4055826422      88.8189610182      89.4375071185       0.0000000000      -3.1887698810      -1.6835731500       4.0734703600      -2.0235198900       1.6827670700      -5.2576595000       0.3244478100      -0.3047026010       0.0000000000       0.0000000000
