       4.6153423885      50.5050528361      20.7491451523      30.6847983539      46.8116578628     186.1261654297       0.0000000000      12.7605783200     -28.5557322300      81.9536750200     -59.4316515700      54.0766803600     -38.6252431600       8.0756770100      -4.7328271200       0.0000000000       0.0000000000
