       5.9571657910       7.6640597654     327.8266988750      58.7161347508      76.0716751043     280.5158695482       1.0000000000      -3.4938906830      -1.3659368900       6.5839351700      -4.6141948400       3.9879720700      -8.1373983100       0.5788759100      -0.5271437930       0.0000000000       0.0000000000
