       7.0398864314      92.2809080273     324.1117649444     186.3784001524     130.2104773654     110.6617432048       0.0000000000       2.6389461050     -16.2860610400      38.7291856400     -25.1232596800      21.9736826400     -16.5205600700       3.4037024700      -3.5377438650       0.0000000000       0.0000000000
