       5.7285945763      54.4249816398       9.5317387175     110.3394914215     115.5120415208     119.6584725331       0.0000000000      -3.5178173480      -7.1462396800      18.2569113900     -13.2160723200      12.0042305600     -13.3962072900       1.3812296600      -1.4016696580       0.0000000000       0.0000000000
