       5.8993011487      40.5793652686     293.2283590527       5.8026293152      87.6736388151     267.2000319212       0.0000000000      -1.1771095020      -3.2110559800      13.3797655200      -6.6056335700       5.8417707500     -10.7329261000       1.4317185400      -1.2807486620       0.0000000000       0.0000000000
