       5.7187200000     140.8155702974     321.8860703287     179.9999994284      39.1844300491     141.8860702039       1.0000000000      11.5766775990     -28.8249743000      73.6153523400     -50.0424619600      45.2658163400     -28.3247086700       4.5218544300      -4.6342005710       0.0000000000       0.0000000000
