       3.4751875498     119.8731765074     142.1021692076     196.8953620717     117.1119632164     103.7941784330      -0.0949581525       0.0000000000       0.0000000000       0.0000000000       0.0000000000       0.0000000000       0.0000000000       0.0000000000      -0.0644627436      -0.0644627848
