       5.1878227926     110.3308054208      84.5127981452     352.2861816475      39.8270812185     154.3670558935      -0.1558724927       0.0000000000       0.0000000000       0.0000000000       0.0000000000       0.0000000000       0.0000000000       0.0000000000      -0.0644625888      -0.0644625896
