       3.7874946547      88.1834285867     246.5127397485      11.0508603320     107.1251274758      37.6293784559      -0.0669317643       0.0000000000       0.0000000000       0.0000000000       0.0000000000       0.0000000000       0.0000000000       0.0000000000      -0.0644627203      -0.0644627106
