       2.6687029596     136.8833948468      35.7573763651      38.3046598061      91.5366038516     208.3523742435      14.7618341722       0.0000000000       0.0000000000       0.0000000000       0.0000000000       0.0000000000       0.0000000000       0.0000000000      -0.0644629725      -0.0644630352
