       3.1778892727      87.4359890109     353.9502510083     112.6837300780      97.6247047209     137.6593187922       6.9799551620       0.0000000000       0.0000000000       0.0000000000       0.0000000000       0.0000000000       0.0000000000       0.0000000000      -0.0644628839      -0.0644628845
