       3.5201732273     123.2786632319     151.5029157129     330.6286742089      57.2903134553     119.6024559840       0.9848055936       0.0000000000       0.0000000000       0.0000000000       0.0000000000       0.0000000000       0.0000000000       0.0000000000      -0.0644627859      -0.0644627677
