       2.8583095678     117.1644003544     129.8374910635     172.0155429753      63.2343202828      74.6609084244      22.2372354512       0.0000000000       0.0000000000       0.0000000000       0.0000000000       0.0000000000       0.0000000000       0.0000000000      -0.0644629799      -0.0644629764
