       3.7131757615      38.0046336061      78.5453336296     238.1312950706     145.8969661676      75.2461832184      -0.0213277290       0.0000000000       0.0000000000       0.0000000000       0.0000000000       0.0000000000       0.0000000000       0.0000000000      -0.0644627325      -0.0644627296
