       3.3054708618      76.9807854907      57.6153438991     121.6146268031     163.5775613882     284.6167404728       4.9149183261       0.0000000000       0.0000000000       0.0000000000       0.0000000000       0.0000000000       0.0000000000       0.0000000000      -0.0644628933      -0.0644628872
