       4.3586722356      64.1490177910     344.8153999398     189.0195084487      62.4480546061      86.3545536344      -0.3407234124       0.0000000000       0.0000000000       0.0000000000       0.0000000000       0.0000000000       0.0000000000       0.0000000000      -0.0644626248      -0.0644626253
