       3.1133306748      50.3532856607     222.2686994322     342.7417260655      62.5568988666     329.2250986510       3.0345133820       0.0000000000       0.0000000000       0.0000000000       0.0000000000       0.0000000000       0.0000000000       0.0000000000      -0.0644628502      -0.0644628502
