       2.5169794223      54.5454206096     210.0594454515      73.6811475562      28.4882289276       3.6261945163      36.9096068356       0.0000000000       0.0000000000       0.0000000000       0.0000000000       0.0000000000       0.0000000000       0.0000000000      -0.0644630863      -0.0644630779
