       3.2287725835     113.9023026169      88.7971662114     117.4469608176      68.3467611140     107.4182243322       8.6639903636       0.0000000000       0.0000000000       0.0000000000       0.0000000000       0.0000000000       0.0000000000       0.0000000000      -0.0644629272      -0.0644629205
