       2.7626720769      77.4288497142      26.9119512511      79.1560503506      56.8606551121     157.5047405008      18.5107728025       0.0000000000       0.0000000000       0.0000000000       0.0000000000       0.0000000000       0.0000000000       0.0000000000      -0.0644631825      -0.0644629850
