       2.7371605585     140.0463434479      28.0918689574     146.1587302124      45.2586102995      56.9096747960      17.4074703234       0.0000000000       0.0000000000       0.0000000000       0.0000000000       0.0000000000       0.0000000000       0.0000000000      -0.0644630451      -0.0644629699
