       3.2605548442      32.4631202438     211.8430115872     167.5375287983      92.4202522158     344.3514000577       2.9666721204       0.0000000000       0.0000000000       0.0000000000       0.0000000000       0.0000000000       0.0000000000       0.0000000000      -0.0644628205      -0.0644628596
