       3.2742646372      86.2865938620     178.2843248519     303.8028921109      87.4520816860      86.7754242643       1.4479708983       0.0000000000       0.0000000000       0.0000000000       0.0000000000       0.0000000000       0.0000000000       0.0000000000      -0.0644628012      -0.0644628342
