       4.8267537488      88.1145152850     146.2059729674      79.7511921538      95.8887341192      54.4244860048      -0.1946310714       0.0000000000       0.0000000000       0.0000000000       0.0000000000       0.0000000000       0.0000000000       0.0000000000      -0.0644625872      -0.0644625853
