       3.2204323841      90.1441918279     229.3625754378     276.5648611765     109.9815198950     286.7673204910       3.5242179212       0.0000000000       0.0000000000       0.0000000000       0.0000000000       0.0000000000       0.0000000000       0.0000000000      -0.0644628418      -0.0644628771
