       3.6809693559     118.3009894530     205.7890005652     199.4058248166      22.5771592419      30.1847189505       0.2085706804       0.0000000000       0.0000000000       0.0000000000       0.0000000000       0.0000000000       0.0000000000       0.0000000000      -0.0644627613      -0.0644628061
