       3.5739599742     153.2540477037     226.1747093801     275.4046704478     117.9901841448     248.3823536674      -0.2001220106       0.0000000000       0.0000000000       0.0000000000       0.0000000000       0.0000000000       0.0000000000       0.0000000000      -0.0644627415      -0.0644627441
