       3.0341637499     100.4499558392     100.2004797184      30.8367576176      49.6914640006     358.2481690920      16.6687312421       0.0000000000       0.0000000000       0.0000000000       0.0000000000       0.0000000000       0.0000000000       0.0000000000      -0.0644629604      -0.0644629749
