       2.9151596044      93.8741668601       6.0820791670      97.1289088838      37.5647311313     309.3372851301       8.9322054228       0.0000000000       0.0000000000       0.0000000000       0.0000000000       0.0000000000       0.0000000000       0.0000000000      -0.0644629174      -0.0644629362
