       4.1680552119     118.5106887287     326.1711219347     359.8127157539      77.1779233361     133.4026914738       0.0720842719       0.0000000000       0.0000000000       0.0000000000       0.0000000000       0.0000000000       0.0000000000       0.0000000000      -0.0644627367      -0.0644627292
