       2.7238100635     148.3384226591     357.4947083867     358.6017694143     104.4379553257     287.3649562458      16.2295508614       0.0000000000       0.0000000000       0.0000000000       0.0000000000       0.0000000000       0.0000000000       0.0000000000      -0.0644630263      -0.0644629898
