       3.7363003216      59.8442738188      47.9781579776     242.1192282346      88.8688495788     211.7963072856      -0.3863084181       0.0000000000       0.0000000000       0.0000000000       0.0000000000       0.0000000000       0.0000000000       0.0000000000      -0.0644627065      -0.0644627056
