       3.5069169063      90.6666602347     349.2082569947      74.7927965025     103.6979745746     112.1112261198       0.6231331635       0.0000000000       0.0000000000       0.0000000000       0.0000000000       0.0000000000       0.0000000000       0.0000000000      -0.0644627618      -0.0644628116
