       2.7607461960     112.1690150969     241.1096537739     208.5330718222     113.5672750925     142.7860693339      20.4524718597       0.0000000000       0.0000000000       0.0000000000       0.0000000000       0.0000000000       0.0000000000       0.0000000000      -0.0644629779      -0.0644630520
