       2.9513886864     120.0206209950       1.1371718425     175.0525506956      23.9020273360     159.1798984494       8.9854012505       0.0000000000       0.0000000000       0.0000000000       0.0000000000       0.0000000000       0.0000000000       0.0000000000      -0.0644628914      -0.0644629736
