       3.9506652195     104.8060658055      17.2519625288     331.8666369322      60.2953154619     231.5117077336      -0.1614542102       0.0000000000       0.0000000000       0.0000000000       0.0000000000       0.0000000000       0.0000000000       0.0000000000      -0.0644626952      -0.0644626870
