       3.2831239529      70.1749178857      34.5936463160     346.2784962910       5.4036230921      94.4443970500      -0.1454354937       0.0000000000       0.0000000000       0.0000000000       0.0000000000       0.0000000000       0.0000000000       0.0000000000      -0.0644628051      -0.0644628044
