       3.7152375174      52.5414420348      37.1445359650     217.0719542965      30.3278181391     161.4517047645      -0.4392653739       0.0000000000       0.0000000000       0.0000000000       0.0000000000       0.0000000000       0.0000000000       0.0000000000      -0.0644627304      -0.0644627018
