       2.3957600878     149.3862427885      53.7327871878     156.5133596322     121.3219987781     237.9494022325      42.6657816649       0.0000000000       0.0000000000       0.0000000000       0.0000000000       0.0000000000       0.0000000000       0.0000000000      -0.0644630778      -0.0644631277
