       2.9967372438      22.9275299276     240.7738237576     139.8996215553      85.7867190833     292.4301970268      19.6828489449       0.0000000000       0.0000000000       0.0000000000       0.0000000000       0.0000000000       0.0000000000       0.0000000000      -0.0644629693      -0.0644629832
