       4.0401087192      40.9585913918     335.9722944338      60.4311189878      73.5018100769      27.1322682436      -0.1310213854       0.0000000000       0.0000000000       0.0000000000       0.0000000000       0.0000000000       0.0000000000       0.0000000000      -0.0644627237      -0.0644627265
