       2.6038213761     107.5924787514      45.7855132091     291.5142276411      12.5757755001     227.6856085068      18.3593925691       0.0000000000       0.0000000000       0.0000000000       0.0000000000       0.0000000000       0.0000000000       0.0000000000      -0.0644629931      -0.0644631003
