       2.8235307807      82.1016048595     213.2918775872      92.2870221941     141.1023152533     276.2357888185      21.3289019622       0.0000000000       0.0000000000       0.0000000000       0.0000000000       0.0000000000       0.0000000000       0.0000000000      -0.0644629762      -0.0644630080
