       3.0430853747      55.0537649294     278.7974048116      96.2194014427     113.4803006700     148.8904322943       3.5581308514       0.0000000000       0.0000000000       0.0000000000       0.0000000000       0.0000000000       0.0000000000       0.0000000000      -0.0644629147      -0.0644628470
