       3.1331571249     172.6464257396     298.7503690244     350.5966378379      55.3507818831      60.5776807615       3.3626215918       0.0000000000       0.0000000000       0.0000000000       0.0000000000       0.0000000000       0.0000000000       0.0000000000      -0.0644629254      -0.0644628346
