       4.0114173624     152.1264582510     213.6109733008     149.6391404603      89.6281787124      96.4984425541      -0.3812866576       0.0000000000       0.0000000000       0.0000000000       0.0000000000       0.0000000000       0.0000000000       0.0000000000      -0.0644626595      -0.0644626749
