       3.1557394213      72.3726462284     325.7240518213     331.8858601573     123.8341594492      80.3654752071       2.0718897470       0.0000000000       0.0000000000       0.0000000000       0.0000000000       0.0000000000       0.0000000000       0.0000000000      -0.0644628150      -0.0644628890
