       2.6222006421      54.8741746462     122.4336428786     241.9713843649     146.2979285241     219.1597553662      27.9062005717       0.0000000000       0.0000000000       0.0000000000       0.0000000000       0.0000000000       0.0000000000       0.0000000000      -0.0644631012      -0.0644630112
