       3.4347163231     100.3757763225     102.6117991293      50.1482718543     149.9997868365     205.4835205833       3.4672550128       0.0000000000       0.0000000000       0.0000000000       0.0000000000       0.0000000000       0.0000000000       0.0000000000      -0.0644628441      -0.0644628471
