       3.9460932714      76.4090152063     260.1033411495     188.5252088237     151.9453659848       3.3251301211      -0.3829798620       0.0000000000       0.0000000000       0.0000000000       0.0000000000       0.0000000000       0.0000000000       0.0000000000      -0.0644627192      -0.0644626747
