       3.5764145669     122.0804293575     109.0568269556     300.9758532527      32.2475277872      26.7674656749       2.0797944661       0.0000000000       0.0000000000       0.0000000000       0.0000000000       0.0000000000       0.0000000000       0.0000000000      -0.0644628230      -0.0644628231
