       3.0858776885      40.0951482658      84.6459349594     318.4491020572     118.5907813882      17.3540361762       5.0748288935       0.0000000000       0.0000000000       0.0000000000       0.0000000000       0.0000000000       0.0000000000       0.0000000000      -0.0644628587      -0.0644628802
