       3.8843904289      92.1133973168      90.7997555090     128.7267475304      26.7743338164      15.0840168829      -0.0839349870       0.0000000000       0.0000000000       0.0000000000       0.0000000000       0.0000000000       0.0000000000       0.0000000000      -0.0644627206      -0.0644627412
