       4.4377302856     141.4054232384     185.7767360616     254.0877529408      57.3396057459      71.3539896650      -0.3010156924       0.0000000000       0.0000000000       0.0000000000       0.0000000000       0.0000000000       0.0000000000       0.0000000000      -0.0644626253      -0.0644626244
