       3.4841183141       9.0632906238     110.6611229508     260.7621599384      26.3739757923     262.4405859911       1.7990356946       0.0000000000       0.0000000000       0.0000000000       0.0000000000       0.0000000000       0.0000000000       0.0000000000      -0.0644628192      -0.0644628498
