       2.9529618103      75.8017689558      87.2340669366      32.9795929246     119.6827464626     167.2280156121      12.3868854155       0.0000000000       0.0000000000       0.0000000000       0.0000000000       0.0000000000       0.0000000000       0.0000000000      -0.0644629283      -0.0644629454
