 Entering Gaussian System, Link 0=/data/szalewicgrp/connornm/opt/Gaussian/g09-M05-par/g09/g09
 AtFile(1): aug-cc-pVTZ.gbs
 Initial command:
 /data/szalewicgrp/connornm/opt/Gaussian/g09-M05-par/g09/l1.exe "/scratch/local/Gau-17532.inp" -scrdir="/scratch/local/"
 Entering Link 1 = /data/szalewicgrp/connornm/opt/Gaussian/g09-M05-par/g09/l1.exe PID=     17533.
  
 Copyright (c) 1988,1990,1992,1993,1995,1998,2003,2009,2013,
            Gaussian, Inc.  All Rights Reserved.
  
 This is part of the Gaussian(R) 09 program.  It is based on
 the Gaussian(R) 03 system (copyright 2003, Gaussian, Inc.),
 the Gaussian(R) 98 system (copyright 1998, Gaussian, Inc.),
 the Gaussian(R) 94 system (copyright 1995, Gaussian, Inc.),
 the Gaussian 92(TM) system (copyright 1992, Gaussian, Inc.),
 the Gaussian 90(TM) system (copyright 1990, Gaussian, Inc.),
 the Gaussian 88(TM) system (copyright 1988, Gaussian, Inc.),
 the Gaussian 86(TM) system (copyright 1986, Carnegie Mellon
 University), and the Gaussian 82(TM) system (copyright 1983,
 Carnegie Mellon University). Gaussian is a federally registered
 trademark of Gaussian, Inc.
  
 This software contains proprietary and confidential information,
 including trade secrets, belonging to Gaussian, Inc.
  
 This software is provided under written license and may be
 used, copied, transmitted, or stored only in accord with that
 written license.
  
 The following legend is applicable only to US Government
 contracts under FAR:
  
                    RESTRICTED RIGHTS LEGEND
  
 Use, reproduction and disclosure by the US Government is
 subject to restrictions as set forth in subparagraphs (a)
 and (c) of the Commercial Computer Software - Restricted
 Rights clause in FAR 52.227-19.
  
 Gaussian, Inc.
 340 Quinnipiac St., Bldg. 40, Wallingford CT 06492
  
  
 ---------------------------------------------------------------
 Warning -- This program may not be used in any manner that
 competes with the business of Gaussian, Inc. or will provide
 assistance to any competitor of Gaussian, Inc.  The licensee
 of this program is prohibited from giving any competitor of
 Gaussian, Inc. access to this program.  By using this program,
 the user acknowledges that Gaussian, Inc. is engaged in the
 business of creating and licensing software in the field of
 computational chemistry and represents and warrants to the
 licensee that it is not a competitor of Gaussian, Inc. and that
 it will not use this program in any manner prohibited above.
 ---------------------------------------------------------------
  

 Cite this work as:
 Gaussian 09, Revision D.01,
 M. J. Frisch, G. W. Trucks, H. B. Schlegel, G. E. Scuseria, 
 M. A. Robb, J. R. Cheeseman, G. Scalmani, V. Barone, B. Mennucci, 
 G. A. Petersson, H. Nakatsuji, M. Caricato, X. Li, H. P. Hratchian, 
 A. F. Izmaylov, J. Bloino, G. Zheng, J. L. Sonnenberg, M. Hada, 
 M. Ehara, K. Toyota, R. Fukuda, J. Hasegawa, M. Ishida, T. Nakajima, 
 Y. Honda, O. Kitao, H. Nakai, T. Vreven, J. A. Montgomery, Jr., 
 J. E. Peralta, F. Ogliaro, M. Bearpark, J. J. Heyd, E. Brothers, 
 K. N. Kudin, V. N. Staroverov, T. Keith, R. Kobayashi, J. Normand, 
 K. Raghavachari, A. Rendell, J. C. Burant, S. S. Iyengar, J. Tomasi, 
 M. Cossi, N. Rega, J. M. Millam, M. Klene, J. E. Knox, J. B. Cross, 
 V. Bakken, C. Adamo, J. Jaramillo, R. Gomperts, R. E. Stratmann, 
 O. Yazyev, A. J. Austin, R. Cammi, C. Pomelli, J. W. Ochterski, 
 R. L. Martin, K. Morokuma, V. G. Zakrzewski, G. A. Voth, 
 P. Salvador, J. J. Dannenberg, S. Dapprich, A. D. Daniels, 
 O. Farkas, J. B. Foresman, J. V. Ortiz, J. Cioslowski, 
 and D. J. Fox, Gaussian, Inc., Wallingford CT, 2013.
 
 ******************************************
 Gaussian 09:  AS64L-G09RevD.01 24-Apr-2013
                 5-Dec-2018 
 ******************************************
 %Chk=CH400007
 %Mem=2GB
 %NProcShared=16
 Will use up to   16 processors via shared memory.
 -----------------------------------------------------------
 #T M05/Gen test Massage Symmetry=None SCF=(tight,maxcyc=60)
 -----------------------------------------------------------
 -------
 M05 opt
 -------
 Symbolic Z-matrix:
 Charge =  0 Multiplicity = 1
 6                     0.        0.        0. 
 1                     0.78694   0.        0.77891 
 1                     0.47043   0.06931  -0.99994 
 1                    -0.58646  -0.93672   0.06785 
 1                    -0.67091   0.86741   0.15317 
 6-Bq                  0.        0.        3.4839 
 1-Bq                 -0.0024    1.0695    3.19728 
 1-Bq                 -0.9305   -0.48053   3.1244 
 1-Bq                  0.8749   -0.50241   3.02769 
 1-Bq                  0.058    -0.08656   4.58623 
 
                    Distance matrix (angstroms):
                    1          2          3          4          5
     1  C    0.000000
     2  H    1.107243   0.000000
     3  H    1.107242   1.808119   0.000000
     4  H    1.107242   1.808119   1.808119   0.000000
     5  H    1.107242   1.808119   1.808119   1.808119   0.000000
     6  C    3.483901   2.817133   4.508982   3.590370   3.506605
     7  H    3.371419   2.759603   4.340580   3.762896   3.123200
     8  H    3.295240   2.946494   4.390340   3.109489   3.273000
     9  H    3.191359   2.305895   4.088061   3.329390   3.539603
    10  H    4.587413   3.877437   5.603541   4.642608   4.592753
                    6          7          8          9         10
     6  C    0.000000
     7  H    1.107243   0.000000
     8  H    1.107243   1.808119   0.000000
     9  H    1.107243   1.808119   1.808119   0.000000
    10  H    1.107243   1.808119   1.808119   1.808119   0.000000
 Symmetry turned off by external request.
 Rotational constants (GHZ):     76.6916054      4.8650168      4.8650168
   276 basis functions,   360 primitive gaussians,   310 cartesian basis functions
     5 alpha electrons        5 beta electrons
       nuclear repulsion energy        13.2261670151 Hartrees.
 IMHF & INEx in M05                  614413                  385587
 NAtoms=   10 NActive=   10 NUniq=   10 SFac= 1.00D+00 NAtFMM=   60 NAOKFM=F Big=F
 ExpMin= 2.53D-02 ExpMax= 8.24D+03 ExpMxC= 2.81D+02 IAcc=3 IRadAn=         5 AccDes= 0.00D+00
 Harris functional with IExCor= 1009 and IRadAn=       5 diagonalized for initial guess.
 HarFok:  IExCor= 1009 AccDes= 0.00D+00 IRadAn=         5 IDoV= 1 UseB2=F ITyADJ=14
 ICtDFT=  3500011 ScaDFX=  1.000000  1.000000  1.000000  1.000000
 FoFCou: FMM=F IPFlag=           0 FMFlag=      100000 FMFlg1=           0
         NFxFlg=           0 DoJE=T BraDBF=F KetDBF=T FulRan=T
         wScrn=  0.000000 ICntrl=     500 IOpCl=  0 I1Cent=   200000004 NGrid=           0
         NMat0=    1 NMatS0=      1 NMatT0=    0 NMatD0=    1 NMtDS0=    0 NMtDT0=    0
 Symmetry not used in FoFCou.
 SCF Done:  E(RM05) =  -44.9243916166     A.U. after   10 cycles
            NFock= 10  Conv=0.29D-08     -V/T= 2.0280

 **********************************************************************

            Population analysis using the SCF density.

 **********************************************************************

 Alpha  occ. eigenvalues --  -11.79331  -0.95365  -0.65716  -0.65713  -0.65711
 Alpha virt. eigenvalues --   -0.07441  -0.00624  -0.00575  -0.00571   0.01190
 Alpha virt. eigenvalues --    0.01526   0.01644   0.03475   0.04032   0.04839
 Alpha virt. eigenvalues --    0.05742   0.06701   0.07394   0.07754   0.08604
 Alpha virt. eigenvalues --    0.09338   0.10278   0.11319   0.11639   0.12168
 Alpha virt. eigenvalues --    0.16756   0.18972   0.19497   0.19852   0.20283
 Alpha virt. eigenvalues --    0.20327   0.21332   0.21586   0.22297   0.23535
 Alpha virt. eigenvalues --    0.24546   0.26279   0.26737   0.27039   0.27742
 Alpha virt. eigenvalues --    0.28097   0.28515   0.30227   0.30665   0.31783
 Alpha virt. eigenvalues --    0.32358   0.33365   0.34094   0.34723   0.36700
 Alpha virt. eigenvalues --    0.37448   0.38912   0.39324   0.40776   0.41468
 Alpha virt. eigenvalues --    0.43534   0.44584   0.45681   0.46340   0.48418
 Alpha virt. eigenvalues --    0.49821   0.50399   0.50755   0.53373   0.53573
 Alpha virt. eigenvalues --    0.55805   0.56470   0.59308   0.60015   0.62735
 Alpha virt. eigenvalues --    0.64008   0.64655   0.64843   0.66413   0.67831
 Alpha virt. eigenvalues --    0.69006   0.70851   0.73127   0.73674   0.74619
 Alpha virt. eigenvalues --    0.76342   0.77575   0.79275   0.80756   0.81494
 Alpha virt. eigenvalues --    0.81581   0.84229   0.86655   0.87395   0.89261
 Alpha virt. eigenvalues --    0.90388   0.91523   0.92199   0.92864   0.94823
 Alpha virt. eigenvalues --    0.95019   0.96643   0.98306   0.99016   1.00045
 Alpha virt. eigenvalues --    1.01157   1.02459   1.02891   1.03834   1.06686
 Alpha virt. eigenvalues --    1.07145   1.09514   1.10028   1.11576   1.13280
 Alpha virt. eigenvalues --    1.14697   1.16055   1.17105   1.20486   1.21519
 Alpha virt. eigenvalues --    1.23098   1.24038   1.24979   1.26874   1.29359
 Alpha virt. eigenvalues --    1.30145   1.30598   1.31296   1.32771   1.34309
 Alpha virt. eigenvalues --    1.35163   1.36511   1.37272   1.38930   1.39846
 Alpha virt. eigenvalues --    1.41387   1.42396   1.48119   1.49200   1.52497
 Alpha virt. eigenvalues --    1.52950   1.53795   1.56159   1.61312   1.62352
 Alpha virt. eigenvalues --    1.63958   1.69221   1.71266   1.72140   1.72977
 Alpha virt. eigenvalues --    1.77018   1.81076   1.82208   1.84135   1.84900
 Alpha virt. eigenvalues --    1.85807   1.88016   1.94156   1.95362   1.98112
 Alpha virt. eigenvalues --    1.98830   1.99462   2.04458   2.06288   2.09700
 Alpha virt. eigenvalues --    2.12468   2.22402   2.28661   2.29838   2.33158
 Alpha virt. eigenvalues --    2.41734   2.44298   2.48527   2.57791   2.60211
 Alpha virt. eigenvalues --    2.63748   2.66653   2.67037   2.71623   2.84417
 Alpha virt. eigenvalues --    3.05286   3.05630   3.07192   3.08901   3.10242
 Alpha virt. eigenvalues --    3.13289   3.16050   3.17259   3.29935   3.32052
 Alpha virt. eigenvalues --    3.34363   3.51622   3.52939   3.54244   3.54925
 Alpha virt. eigenvalues --    3.57065   3.57953   3.59667   3.64273   3.69144
 Alpha virt. eigenvalues --    3.81013   3.96548   3.97594   3.98329   3.99817
 Alpha virt. eigenvalues --    4.00078   4.02046   4.02851   4.03473   4.07054
 Alpha virt. eigenvalues --    4.10579   4.12994   4.13350   4.15179   4.17156
 Alpha virt. eigenvalues --    4.19187   4.21657   4.26066   4.28368   4.29005
 Alpha virt. eigenvalues --    4.34236   4.37433   4.38878   4.42957   4.46888
 Alpha virt. eigenvalues --    4.47752   4.51743   4.53785   4.54521   4.56865
 Alpha virt. eigenvalues --    4.57491   4.58246   4.58660   4.63325   4.69289
 Alpha virt. eigenvalues --    4.77244   4.89946   4.90659   4.93319   4.95450
 Alpha virt. eigenvalues --    4.96065   4.97599   4.98196   5.08502   5.10053
 Alpha virt. eigenvalues --    5.11317   5.16080   5.17907   5.24965   5.25662
 Alpha virt. eigenvalues --    5.27280   5.27810   5.29456   5.29959   5.39017
 Alpha virt. eigenvalues --    5.40470   5.46132   5.46368   5.49055   5.54374
 Alpha virt. eigenvalues --    5.72218   5.75850   5.77702   6.11887   6.12139
 Alpha virt. eigenvalues --    6.13071   6.21421   6.21824   6.79202   6.79370
 Alpha virt. eigenvalues --    6.81294   6.95993   7.62602   7.63434   7.68164
 Alpha virt. eigenvalues --    8.05015   8.06043   8.12402  10.38200  15.46811
 Alpha virt. eigenvalues --   52.74315
          Condensed to atoms (all electrons):
 Mulliken charges:
               1
     1  C   -0.398526
     2  H    0.330372
     3  H   -0.140136
     4  H    0.109949
     5  H    0.083095
     6  C    0.020065
     7  H    0.007626
     8  H   -0.005829
     9  H   -0.007658
    10  H    0.001041
 Sum of Mulliken charges =   0.00000
 Mulliken charges with hydrogens summed into heavy atoms:
               1
     1  C   -0.015246
     6  C    0.015246
 Electronic spatial extent (au):  <R**2>=             36.0918
 Charge=              0.0000 electrons
 Dipole moment (field-independent basis, Debye):
    X=              0.0000    Y=              0.0001    Z=              0.0001  Tot=              0.0001

 Test job not archived.
 1\1\GINC-CHIMERA-NODE53\SP\RM05\Gen\C2H8\CONNORNM\05-Dec-2018\0\\#T M0
 5/Gen test Massage Symmetry=None SCF=(tight,maxcyc=60)\\M05 opt\\0,1\C
 ,0,0.,0.,0.\H,0,0.78694406,0.,0.77891271\H,0,0.47043102,0.06930655,-0.
 9999386\H,0,-0.58646436,-0.93671836,0.06785441\H,0,-0.67091072,0.86741
 181,0.15317149\C,0,0.,0.,3.48390059\H,0,-0.00239535,1.06950053,3.19728
 44\H,0,-0.93050079,-0.48053293,3.12439768\H,0,0.87489812,-0.50240597,3
 .02769068\H,0,0.05799802,-0.08656163,4.58622961\\Version=AS64L-G09RevD
 .01\HF=-44.9243916\RMSD=2.883e-09\Dipole=0.0000112,0.0000397,0.0000355
 \Quadrupole=0.0002474,-0.0011654,0.000918,0.0001116,-0.0016339,0.00012
 97\PG=Unknown\\@


 IN THE FIGHT BETWEEN YOU AND THE WORLD, BACK THE WORLD

                                        -- FRANZ KAFKA
 Job cpu time:       0 days  0 hours 17 minutes 12.1 seconds.
 File lengths (MBytes):  RWF=     41 Int=      0 D2E=      0 Chk=      4 Scr=      1
 Normal termination of Gaussian 09 at Wed Dec  5 22:05:08 2018.
