 Entering Gaussian System, Link 0=/data/szalewicgrp/connornm/opt/Gaussian/g09-M05-par/g09/g09
 AtFile(1): aug-cc-pVTZ.gbs
 Initial command:
 /data/szalewicgrp/connornm/opt/Gaussian/g09-M05-par/g09/l1.exe "/scratch/local/Gau-25160.inp" -scrdir="/scratch/local/"
 Entering Link 1 = /data/szalewicgrp/connornm/opt/Gaussian/g09-M05-par/g09/l1.exe PID=     25161.
  
 Copyright (c) 1988,1990,1992,1993,1995,1998,2003,2009,2013,
            Gaussian, Inc.  All Rights Reserved.
  
 This is part of the Gaussian(R) 09 program.  It is based on
 the Gaussian(R) 03 system (copyright 2003, Gaussian, Inc.),
 the Gaussian(R) 98 system (copyright 1998, Gaussian, Inc.),
 the Gaussian(R) 94 system (copyright 1995, Gaussian, Inc.),
 the Gaussian 92(TM) system (copyright 1992, Gaussian, Inc.),
 the Gaussian 90(TM) system (copyright 1990, Gaussian, Inc.),
 the Gaussian 88(TM) system (copyright 1988, Gaussian, Inc.),
 the Gaussian 86(TM) system (copyright 1986, Carnegie Mellon
 University), and the Gaussian 82(TM) system (copyright 1983,
 Carnegie Mellon University). Gaussian is a federally registered
 trademark of Gaussian, Inc.
  
 This software contains proprietary and confidential information,
 including trade secrets, belonging to Gaussian, Inc.
  
 This software is provided under written license and may be
 used, copied, transmitted, or stored only in accord with that
 written license.
  
 The following legend is applicable only to US Government
 contracts under FAR:
  
                    RESTRICTED RIGHTS LEGEND
  
 Use, reproduction and disclosure by the US Government is
 subject to restrictions as set forth in subparagraphs (a)
 and (c) of the Commercial Computer Software - Restricted
 Rights clause in FAR 52.227-19.
  
 Gaussian, Inc.
 340 Quinnipiac St., Bldg. 40, Wallingford CT 06492
  
  
 ---------------------------------------------------------------
 Warning -- This program may not be used in any manner that
 competes with the business of Gaussian, Inc. or will provide
 assistance to any competitor of Gaussian, Inc.  The licensee
 of this program is prohibited from giving any competitor of
 Gaussian, Inc. access to this program.  By using this program,
 the user acknowledges that Gaussian, Inc. is engaged in the
 business of creating and licensing software in the field of
 computational chemistry and represents and warrants to the
 licensee that it is not a competitor of Gaussian, Inc. and that
 it will not use this program in any manner prohibited above.
 ---------------------------------------------------------------
  

 Cite this work as:
 Gaussian 09, Revision D.01,
 M. J. Frisch, G. W. Trucks, H. B. Schlegel, G. E. Scuseria, 
 M. A. Robb, J. R. Cheeseman, G. Scalmani, V. Barone, B. Mennucci, 
 G. A. Petersson, H. Nakatsuji, M. Caricato, X. Li, H. P. Hratchian, 
 A. F. Izmaylov, J. Bloino, G. Zheng, J. L. Sonnenberg, M. Hada, 
 M. Ehara, K. Toyota, R. Fukuda, J. Hasegawa, M. Ishida, T. Nakajima, 
 Y. Honda, O. Kitao, H. Nakai, T. Vreven, J. A. Montgomery, Jr., 
 J. E. Peralta, F. Ogliaro, M. Bearpark, J. J. Heyd, E. Brothers, 
 K. N. Kudin, V. N. Staroverov, T. Keith, R. Kobayashi, J. Normand, 
 K. Raghavachari, A. Rendell, J. C. Burant, S. S. Iyengar, J. Tomasi, 
 M. Cossi, N. Rega, J. M. Millam, M. Klene, J. E. Knox, J. B. Cross, 
 V. Bakken, C. Adamo, J. Jaramillo, R. Gomperts, R. E. Stratmann, 
 O. Yazyev, A. J. Austin, R. Cammi, C. Pomelli, J. W. Ochterski, 
 R. L. Martin, K. Morokuma, V. G. Zakrzewski, G. A. Voth, 
 P. Salvador, J. J. Dannenberg, S. Dapprich, A. D. Daniels, 
 O. Farkas, J. B. Foresman, J. V. Ortiz, J. Cioslowski, 
 and D. J. Fox, Gaussian, Inc., Wallingford CT, 2013.
 
 ******************************************
 Gaussian 09:  AS64L-G09RevD.01 24-Apr-2013
                 5-Dec-2018 
 ******************************************
 %Chk=CH400097
 %Mem=2GB
 %NProcShared=16
 Will use up to   16 processors via shared memory.
 -----------------------------------------------------------
 #T M05/Gen test Massage Symmetry=None SCF=(tight,maxcyc=60)
 -----------------------------------------------------------
 -------
 M05 opt
 -------
 Symbolic Z-matrix:
 Charge =  0 Multiplicity = 1
 6                     0.        0.        0. 
 1                     0.23423   0.       -1.08218 
 1                     0.31368  -0.9639    0.44552 
 1                     0.54192   0.82907   0.49492 
 1                    -1.08982   0.13483   0.14175 
 6-Bq                  0.        0.        3.17657 
 1-Bq                 -0.92053   0.37869   2.6916 
 1-Bq                 -0.03835   0.21722   4.26162 
 1-Bq                  0.07566  -1.09373   3.02158 
 1-Bq                  0.88322   0.49781   2.7315 
 
                    Distance matrix (angstroms):
                    1          2          3          4          5
     1  C    0.000000
     2  H    1.107243   0.000000
     3  H    1.107243   1.808119   0.000000
     4  H    1.107243   1.808119   1.808119   0.000000
     5  H    1.107242   1.808119   1.808119   1.808119   0.000000
     6  C    3.176573   4.265194   2.913101   2.858725   3.227392
     7  H    2.869753   3.964632   2.893216   2.677127   2.567073
     8  H    4.267326   5.355160   4.010189   3.859937   4.252734
     9  H    3.214324   4.249968   2.590285   3.209136   3.340824
    10  H    2.913583   3.900407   2.772487   2.286590   3.275889
                    6          7          8          9         10
     6  C    0.000000
     7  H    1.107242   0.000000
     8  H    1.107243   1.808119   0.000000
     9  H    1.107243   1.808119   1.808119   0.000000
    10  H    1.107243   1.808119   1.808119   1.808119   0.000000
 Symmetry turned off by external request.
 Rotational constants (GHZ):     76.6916056      5.7775706      5.7775706
   276 basis functions,   360 primitive gaussians,   310 cartesian basis functions
     5 alpha electrons        5 beta electrons
       nuclear repulsion energy        13.2261669758 Hartrees.
 IMHF & INEx in M05                  614413                  385587
 NAtoms=   10 NActive=   10 NUniq=   10 SFac= 1.00D+00 NAtFMM=   60 NAOKFM=F Big=F
 ExpMin= 2.53D-02 ExpMax= 8.24D+03 ExpMxC= 2.81D+02 IAcc=3 IRadAn=         5 AccDes= 0.00D+00
 Harris functional with IExCor= 1009 and IRadAn=       5 diagonalized for initial guess.
 HarFok:  IExCor= 1009 AccDes= 0.00D+00 IRadAn=         5 IDoV= 1 UseB2=F ITyADJ=14
 ICtDFT=  3500011 ScaDFX=  1.000000  1.000000  1.000000  1.000000
 FoFCou: FMM=F IPFlag=           0 FMFlag=      100000 FMFlg1=           0
         NFxFlg=           0 DoJE=T BraDBF=F KetDBF=T FulRan=T
         wScrn=  0.000000 ICntrl=     500 IOpCl=  0 I1Cent=   200000004 NGrid=           0
         NMat0=    1 NMatS0=      1 NMatT0=    0 NMatD0=    1 NMtDS0=    0 NMtDT0=    0
 Symmetry not used in FoFCou.
 EnCoef did   100 forward-backward iterations
 EnCoef did    42 forward-backward iterations
 EnCoef did    21 forward-backward iterations
 EnCoef did    44 forward-backward iterations
 EnCoef did   100 forward-backward iterations
 EnCoef did   100 forward-backward iterations
 Rare condition: small coef for last iteration: -0.224D-15
 EnCoef did   100 forward-backward iterations
 Rare condition: small coef for last iteration:  0.000D+00
 EnCoef did   100 forward-backward iterations
 Rare condition: small coef for last iteration:  0.000D+00
 EnCoef did   100 forward-backward iterations
 Rare condition: small coef for last iteration:  0.000D+00
 EnCoef did   100 forward-backward iterations
 EnCoef did   100 forward-backward iterations
 EnCoef did    78 forward-backward iterations
 EnCoef did    62 forward-backward iterations
 EnCoef did    88 forward-backward iterations
 Rare condition: small coef for last iteration: -0.666D-15
 EnCoef did    69 forward-backward iterations
 Rare condition: small coef for last iteration:  0.218D-15
 EnCoef did    93 forward-backward iterations
 Rare condition: small coef for last iteration: -0.888D-15
 Restarting incremental Fock formation.
 EnCoef did    99 forward-backward iterations
 Rare condition: small coef for last iteration: -0.200D-14
 EnCoef did    83 forward-backward iterations
 Rare condition: small coef for last iteration:  0.999D-15
 EnCoef did    85 forward-backward iterations
 Rare condition: small coef for last iteration: -0.244D-14
 EnCoef did    84 forward-backward iterations
 Rare condition: small coef for last iteration: -0.111D-14
 EnCoef did    83 forward-backward iterations
 Rare condition: small coef for last iteration:  0.555D-15
 EnCoef did    85 forward-backward iterations
 Rare condition: small coef for last iteration: -0.111D-14
 EnCoef did    64 forward-backward iterations
 Rare condition: small coef for last iteration:  0.888D-15
 EnCoef did    93 forward-backward iterations
 Rare condition: small coef for last iteration: -0.133D-14
 EnCoef did    91 forward-backward iterations
 Rare condition: small coef for last iteration:  0.278D-14
 EnCoef did    64 forward-backward iterations
 Rare condition: small coef for last iteration:  0.355D-14
 Restarting incremental Fock formation.
 EnCoef did    93 forward-backward iterations
 Rare condition: small coef for last iteration:  0.333D-15
 EnCoef did    90 forward-backward iterations
 Rare condition: small coef for last iteration:  0.777D-15
 EnCoef did    65 forward-backward iterations
 Rare condition: small coef for last iteration: -0.444D-15
 EnCoef did    92 forward-backward iterations
 Rare condition: small coef for last iteration:  0.555D-15
 EnCoef did    98 forward-backward iterations
 Rare condition: small coef for last iteration:  0.355D-14
 EnCoef did    68 forward-backward iterations
 Rare condition: small coef for last iteration:  0.222D-14
 EnCoef did    92 forward-backward iterations
 Rare condition: small coef for last iteration: -0.244D-14
 EnCoef did    94 forward-backward iterations
 Rare condition: small coef for last iteration: -0.666D-15
 EnCoef did    68 forward-backward iterations
 Rare condition: small coef for last iteration:  0.244D-14
 EnCoef did    92 forward-backward iterations
 Rare condition: small coef for last iteration:  0.222D-15
 >>>>>>>>>> Convergence criterion not met.
 SCF Done:  E(RM05) =   22.2786382899     A.U. after   61 cycles
            NFock= 60  Conv=0.51D-01     -V/T= 0.5121
 Convergence failure -- run terminated.
 Error termination via Lnk1e in /data/szalewicgrp/connornm/opt/Gaussian/g09-M05-par/g09/l502.exe at Wed Dec  5 22:29:14 2018.
 Job cpu time:       0 days  1 hours 43 minutes 23.7 seconds.
 File lengths (MBytes):  RWF=     41 Int=      0 D2E=      0 Chk=      2 Scr=      1
