 Entering Gaussian System, Link 0=/data/szalewicgrp/connornm/opt/Gaussian/g09-M05-par/g09/g09
 AtFile(1): aug-cc-pVTZ.gbs
 Initial command:
 /data/szalewicgrp/connornm/opt/Gaussian/g09-M05-par/g09/l1.exe "/scratch/local/Gau-12060.inp" -scrdir="/scratch/local/"
 Entering Link 1 = /data/szalewicgrp/connornm/opt/Gaussian/g09-M05-par/g09/l1.exe PID=     12061.
  
 Copyright (c) 1988,1990,1992,1993,1995,1998,2003,2009,2013,
            Gaussian, Inc.  All Rights Reserved.
  
 This is part of the Gaussian(R) 09 program.  It is based on
 the Gaussian(R) 03 system (copyright 2003, Gaussian, Inc.),
 the Gaussian(R) 98 system (copyright 1998, Gaussian, Inc.),
 the Gaussian(R) 94 system (copyright 1995, Gaussian, Inc.),
 the Gaussian 92(TM) system (copyright 1992, Gaussian, Inc.),
 the Gaussian 90(TM) system (copyright 1990, Gaussian, Inc.),
 the Gaussian 88(TM) system (copyright 1988, Gaussian, Inc.),
 the Gaussian 86(TM) system (copyright 1986, Carnegie Mellon
 University), and the Gaussian 82(TM) system (copyright 1983,
 Carnegie Mellon University). Gaussian is a federally registered
 trademark of Gaussian, Inc.
  
 This software contains proprietary and confidential information,
 including trade secrets, belonging to Gaussian, Inc.
  
 This software is provided under written license and may be
 used, copied, transmitted, or stored only in accord with that
 written license.
  
 The following legend is applicable only to US Government
 contracts under FAR:
  
                    RESTRICTED RIGHTS LEGEND
  
 Use, reproduction and disclosure by the US Government is
 subject to restrictions as set forth in subparagraphs (a)
 and (c) of the Commercial Computer Software - Restricted
 Rights clause in FAR 52.227-19.
  
 Gaussian, Inc.
 340 Quinnipiac St., Bldg. 40, Wallingford CT 06492
  
  
 ---------------------------------------------------------------
 Warning -- This program may not be used in any manner that
 competes with the business of Gaussian, Inc. or will provide
 assistance to any competitor of Gaussian, Inc.  The licensee
 of this program is prohibited from giving any competitor of
 Gaussian, Inc. access to this program.  By using this program,
 the user acknowledges that Gaussian, Inc. is engaged in the
 business of creating and licensing software in the field of
 computational chemistry and represents and warrants to the
 licensee that it is not a competitor of Gaussian, Inc. and that
 it will not use this program in any manner prohibited above.
 ---------------------------------------------------------------
  

 Cite this work as:
 Gaussian 09, Revision D.01,
 M. J. Frisch, G. W. Trucks, H. B. Schlegel, G. E. Scuseria, 
 M. A. Robb, J. R. Cheeseman, G. Scalmani, V. Barone, B. Mennucci, 
 G. A. Petersson, H. Nakatsuji, M. Caricato, X. Li, H. P. Hratchian, 
 A. F. Izmaylov, J. Bloino, G. Zheng, J. L. Sonnenberg, M. Hada, 
 M. Ehara, K. Toyota, R. Fukuda, J. Hasegawa, M. Ishida, T. Nakajima, 
 Y. Honda, O. Kitao, H. Nakai, T. Vreven, J. A. Montgomery, Jr., 
 J. E. Peralta, F. Ogliaro, M. Bearpark, J. J. Heyd, E. Brothers, 
 K. N. Kudin, V. N. Staroverov, T. Keith, R. Kobayashi, J. Normand, 
 K. Raghavachari, A. Rendell, J. C. Burant, S. S. Iyengar, J. Tomasi, 
 M. Cossi, N. Rega, J. M. Millam, M. Klene, J. E. Knox, J. B. Cross, 
 V. Bakken, C. Adamo, J. Jaramillo, R. Gomperts, R. E. Stratmann, 
 O. Yazyev, A. J. Austin, R. Cammi, C. Pomelli, J. W. Ochterski, 
 R. L. Martin, K. Morokuma, V. G. Zakrzewski, G. A. Voth, 
 P. Salvador, J. J. Dannenberg, S. Dapprich, A. D. Daniels, 
 O. Farkas, J. B. Foresman, J. V. Ortiz, J. Cioslowski, 
 and D. J. Fox, Gaussian, Inc., Wallingford CT, 2013.
 
 ******************************************
 Gaussian 09:  AS64L-G09RevD.01 24-Apr-2013
                 5-Dec-2018 
 ******************************************
 %Chk=CH400079
 %Mem=2GB
 %NProcShared=16
 Will use up to   16 processors via shared memory.
 -----------------------------------------------------------
 #T M05/Gen test Massage Symmetry=None SCF=(tight,maxcyc=60)
 -----------------------------------------------------------
 -------
 M05 opt
 -------
 Symbolic Z-matrix:
 Charge =  0 Multiplicity = 1
 6                     0.        0.        0. 
 1                     0.9587    0.       -0.55397 
 1                    -0.3092    1.04371   0.20259 
 1                    -0.77697  -0.50391  -0.60694 
 1                     0.12747  -0.5398    0.95831 
 6-Bq                  0.        0.        2.95139 
 1-Bq                 -0.44695   0.03869   3.96367 
 1-Bq                  0.5711    0.92996   2.7643 
 1-Bq                  0.67989  -0.87109   2.88117 
 1-Bq                 -0.80404  -0.09756   2.19641 
 
                    Distance matrix (angstroms):
                    1          2          3          4          5
     1  C    0.000000
     2  H    1.107243   0.000000
     3  H    1.107243   1.808119   0.000000
     4  H    1.107243   1.808119   1.808119   0.000000
     5  H    1.107242   1.808119   1.808119   1.808119   0.000000
     6  C    2.951389   3.634092   2.956487   3.676858   2.068817
     7  H    3.988982   4.731430   3.895480   4.614521   3.113975
     8  H    2.971923   3.467845   2.711124   3.903653   2.370359
     9  H    3.085809   3.554817   3.437961   3.797918   2.027890
    10  H    2.340984   3.268229   2.350036   2.832772   1.611265
                    6          7          8          9         10
     6  C    0.000000
     7  H    1.107242   0.000000
     8  H    1.107243   1.808119   0.000000
     9  H    1.107243   1.808119   1.808119   0.000000
    10  H    1.107243   1.808119   1.808119   1.808119   0.000000
 Symmetry turned off by external request.
 Rotational constants (GHZ):     76.6916054      6.6139007      6.6139007
   276 basis functions,   360 primitive gaussians,   310 cartesian basis functions
     5 alpha electrons        5 beta electrons
       nuclear repulsion energy        13.2261669974 Hartrees.
 IMHF & INEx in M05                  614413                  385587
 NAtoms=   10 NActive=   10 NUniq=   10 SFac= 1.00D+00 NAtFMM=   60 NAOKFM=F Big=F
 ExpMin= 2.53D-02 ExpMax= 8.24D+03 ExpMxC= 2.81D+02 IAcc=3 IRadAn=         5 AccDes= 0.00D+00
 Harris functional with IExCor= 1009 and IRadAn=       5 diagonalized for initial guess.
 HarFok:  IExCor= 1009 AccDes= 0.00D+00 IRadAn=         5 IDoV= 1 UseB2=F ITyADJ=14
 ICtDFT=  3500011 ScaDFX=  1.000000  1.000000  1.000000  1.000000
 FoFCou: FMM=F IPFlag=           0 FMFlag=      100000 FMFlg1=           0
         NFxFlg=           0 DoJE=T BraDBF=F KetDBF=T FulRan=T
         wScrn=  0.000000 ICntrl=     500 IOpCl=  0 I1Cent=   200000004 NGrid=           0
         NMat0=    1 NMatS0=      1 NMatT0=    0 NMatD0=    1 NMtDS0=    0 NMtDT0=    0
 Symmetry not used in FoFCou.
 SCF Done:  E(RM05) =  -40.9123020379     A.U. after    7 cycles
            NFock=  7  Conv=0.69D-08     -V/T= 2.0127

 **********************************************************************

            Population analysis using the SCF density.

 **********************************************************************

 Alpha  occ. eigenvalues --  -10.74529  -0.82769  -0.48755  -0.48752  -0.48752
 Alpha virt. eigenvalues --   -0.00125   0.02450   0.02672   0.02821   0.04825
 Alpha virt. eigenvalues --    0.05121   0.05522   0.07133   0.07879   0.09186
 Alpha virt. eigenvalues --    0.09802   0.10738   0.10885   0.11333   0.12202
 Alpha virt. eigenvalues --    0.13580   0.15231   0.15706   0.17979   0.18425
 Alpha virt. eigenvalues --    0.21067   0.21357   0.22953   0.26111   0.26826
 Alpha virt. eigenvalues --    0.26921   0.27337   0.27949   0.28466   0.29469
 Alpha virt. eigenvalues --    0.29925   0.30388   0.31077   0.31342   0.32963
 Alpha virt. eigenvalues --    0.33553   0.34355   0.35366   0.36024   0.36309
 Alpha virt. eigenvalues --    0.36839   0.39508   0.40239   0.41799   0.42504
 Alpha virt. eigenvalues --    0.43518   0.43898   0.44688   0.47504   0.48192
 Alpha virt. eigenvalues --    0.48319   0.48557   0.49755   0.51477   0.52315
 Alpha virt. eigenvalues --    0.54790   0.55643   0.58976   0.61708   0.62896
 Alpha virt. eigenvalues --    0.63556   0.65413   0.66521   0.68569   0.71755
 Alpha virt. eigenvalues --    0.72055   0.73486   0.74723   0.76616   0.78086
 Alpha virt. eigenvalues --    0.79743   0.81252   0.83916   0.86143   0.86468
 Alpha virt. eigenvalues --    0.89660   0.90501   0.91127   0.91429   0.92827
 Alpha virt. eigenvalues --    0.94877   0.96602   0.97431   0.97852   0.98171
 Alpha virt. eigenvalues --    0.98753   1.00622   1.01433   1.02468   1.03803
 Alpha virt. eigenvalues --    1.05273   1.06388   1.06638   1.08064   1.09127
 Alpha virt. eigenvalues --    1.09700   1.11239   1.11559   1.13400   1.15174
 Alpha virt. eigenvalues --    1.15346   1.17104   1.19452   1.20719   1.21988
 Alpha virt. eigenvalues --    1.22198   1.25169   1.25468   1.27685   1.32309
 Alpha virt. eigenvalues --    1.33516   1.33814   1.34472   1.36595   1.37791
 Alpha virt. eigenvalues --    1.39307   1.41028   1.43224   1.46284   1.47597
 Alpha virt. eigenvalues --    1.48927   1.51156   1.51937   1.53955   1.58380
 Alpha virt. eigenvalues --    1.59835   1.61368   1.63185   1.65806   1.66577
 Alpha virt. eigenvalues --    1.69197   1.71334   1.73631   1.75946   1.77234
 Alpha virt. eigenvalues --    1.79240   1.80233   1.84860   1.85725   1.89531
 Alpha virt. eigenvalues --    1.89821   1.93449   1.95430   1.96532   1.97265
 Alpha virt. eigenvalues --    1.98318   2.01569   2.02345   2.02634   2.03849
 Alpha virt. eigenvalues --    2.08887   2.11492   2.12667   2.14418   2.22400
 Alpha virt. eigenvalues --    2.23582   2.29879   2.30704   2.37153   2.42422
 Alpha virt. eigenvalues --    2.49537   2.62232   2.64062   2.66348   2.71928
 Alpha virt. eigenvalues --    2.81631   2.88001   2.97331   3.02057   3.08534
 Alpha virt. eigenvalues --    3.25259   3.27701   3.28627   3.30412   3.32137
 Alpha virt. eigenvalues --    3.35216   3.37576   3.51328   3.59888   3.60822
 Alpha virt. eigenvalues --    3.69825   3.70749   3.73441   3.74350   3.76249
 Alpha virt. eigenvalues --    3.78390   3.80364   3.82521   3.86137   3.88184
 Alpha virt. eigenvalues --    3.89535   3.96343   4.02405   4.05675   4.07818
 Alpha virt. eigenvalues --    4.12171   4.14050   4.16743   4.18107   4.21990
 Alpha virt. eigenvalues --    4.23280   4.25755   4.30395   4.33139   4.35480
 Alpha virt. eigenvalues --    4.39046   4.42256   4.43187   4.43953   4.45965
 Alpha virt. eigenvalues --    4.47703   4.49653   4.51486   4.53473   4.54837
 Alpha virt. eigenvalues --    4.56319   4.59094   4.62242   4.68828   4.73383
 Alpha virt. eigenvalues --    4.77944   4.78962   4.79581   4.82885   4.87574
 Alpha virt. eigenvalues --    4.92191   4.94859   5.00651   5.05847   5.08371
 Alpha virt. eigenvalues --    5.14601   5.16623   5.19583   5.22368   5.24272
 Alpha virt. eigenvalues --    5.25770   5.26819   5.30840   5.34590   5.35060
 Alpha virt. eigenvalues --    5.38635   5.40295   5.46922   5.50563   5.50726
 Alpha virt. eigenvalues --    5.58236   5.60412   5.65027   5.79102   5.86361
 Alpha virt. eigenvalues --    6.06830   6.08827   6.09483   6.11804   6.13409
 Alpha virt. eigenvalues --    6.15430   6.19595   6.21567   6.75780   6.79688
 Alpha virt. eigenvalues --    6.86266   6.93720   7.57614   7.58960   7.63525
 Alpha virt. eigenvalues --    7.99775   8.04939   8.10403  10.39351  17.25982
 Alpha virt. eigenvalues --   53.00230
          Condensed to atoms (all electrons):
 Mulliken charges:
               1
     1  C   -1.993721
     2  H    0.431343
     3  H    0.453543
     4  H    0.425021
     5  H    0.670608
     6  C   -0.022650
     7  H   -0.008948
     8  H   -0.000905
     9  H    0.006894
    10  H    0.038814
 Sum of Mulliken charges =   0.00000
 Mulliken charges with hydrogens summed into heavy atoms:
               1
     1  C   -0.013206
     6  C    0.013206
 Electronic spatial extent (au):  <R**2>=             36.5413
 Charge=              0.0000 electrons
 Dipole moment (field-independent basis, Debye):
    X=             -0.0001    Y=             -0.0002    Z=              0.0002  Tot=              0.0003

 Test job not archived.
 1\1\GINC-CHIMERA-NODE51\SP\RM05\Gen\C2H8\CONNORNM\05-Dec-2018\0\\#T M0
 5/Gen test Massage Symmetry=None SCF=(tight,maxcyc=60)\\M05 opt\\0,1\C
 ,0,0.,0.,0.\H,0,0.95870082,0.,-0.55396633\H,0,-0.30920164,1.04371264,0
 .20259376\H,0,-0.77697212,-0.50391427,-0.60693549\H,0,0.12747294,-0.53
 979837,0.95830805\C,0,0.,0.,2.95138869\H,0,-0.44695432,0.03869039,3.96
 367365\H,0,0.5710957,0.92996386,2.76429812\H,0,0.67989425,-0.87109106,
 2.88117381\H,0,-0.80403563,-0.09756319,2.19640916\\Version=AS64L-G09Re
 vD.01\HF=-40.912302\RMSD=6.905e-09\Dipole=-0.0000328,-0.0000916,0.0000
 618\Quadrupole=-0.0000019,0.0002062,-0.0002043,-0.0000999,-0.000061,0.
 0002282\PG=Unknown\\@


 If your ship doesn't come in, swim out to it!
                          -- Jonathan Winters
 Job cpu time:       0 days  0 hours 13 minutes  2.0 seconds.
 File lengths (MBytes):  RWF=     41 Int=      0 D2E=      0 Chk=      4 Scr=      1
 Normal termination of Gaussian 09 at Wed Dec  5 21:54:36 2018.
