 Entering Gaussian System, Link 0=/data/szalewicgrp/connornm/opt/Gaussian/g09-M05-par/g09/g09
 AtFile(1): aug-cc-pVTZ.gbs
 Initial command:
 /data/szalewicgrp/connornm/opt/Gaussian/g09-M05-par/g09/l1.exe "/scratch/local/Gau-28010.inp" -scrdir="/scratch/local/"
 Entering Link 1 = /data/szalewicgrp/connornm/opt/Gaussian/g09-M05-par/g09/l1.exe PID=     28011.
  
 Copyright (c) 1988,1990,1992,1993,1995,1998,2003,2009,2013,
            Gaussian, Inc.  All Rights Reserved.
  
 This is part of the Gaussian(R) 09 program.  It is based on
 the Gaussian(R) 03 system (copyright 2003, Gaussian, Inc.),
 the Gaussian(R) 98 system (copyright 1998, Gaussian, Inc.),
 the Gaussian(R) 94 system (copyright 1995, Gaussian, Inc.),
 the Gaussian 92(TM) system (copyright 1992, Gaussian, Inc.),
 the Gaussian 90(TM) system (copyright 1990, Gaussian, Inc.),
 the Gaussian 88(TM) system (copyright 1988, Gaussian, Inc.),
 the Gaussian 86(TM) system (copyright 1986, Carnegie Mellon
 University), and the Gaussian 82(TM) system (copyright 1983,
 Carnegie Mellon University). Gaussian is a federally registered
 trademark of Gaussian, Inc.
  
 This software contains proprietary and confidential information,
 including trade secrets, belonging to Gaussian, Inc.
  
 This software is provided under written license and may be
 used, copied, transmitted, or stored only in accord with that
 written license.
  
 The following legend is applicable only to US Government
 contracts under FAR:
  
                    RESTRICTED RIGHTS LEGEND
  
 Use, reproduction and disclosure by the US Government is
 subject to restrictions as set forth in subparagraphs (a)
 and (c) of the Commercial Computer Software - Restricted
 Rights clause in FAR 52.227-19.
  
 Gaussian, Inc.
 340 Quinnipiac St., Bldg. 40, Wallingford CT 06492
  
  
 ---------------------------------------------------------------
 Warning -- This program may not be used in any manner that
 competes with the business of Gaussian, Inc. or will provide
 assistance to any competitor of Gaussian, Inc.  The licensee
 of this program is prohibited from giving any competitor of
 Gaussian, Inc. access to this program.  By using this program,
 the user acknowledges that Gaussian, Inc. is engaged in the
 business of creating and licensing software in the field of
 computational chemistry and represents and warrants to the
 licensee that it is not a competitor of Gaussian, Inc. and that
 it will not use this program in any manner prohibited above.
 ---------------------------------------------------------------
  

 Cite this work as:
 Gaussian 09, Revision D.01,
 M. J. Frisch, G. W. Trucks, H. B. Schlegel, G. E. Scuseria, 
 M. A. Robb, J. R. Cheeseman, G. Scalmani, V. Barone, B. Mennucci, 
 G. A. Petersson, H. Nakatsuji, M. Caricato, X. Li, H. P. Hratchian, 
 A. F. Izmaylov, J. Bloino, G. Zheng, J. L. Sonnenberg, M. Hada, 
 M. Ehara, K. Toyota, R. Fukuda, J. Hasegawa, M. Ishida, T. Nakajima, 
 Y. Honda, O. Kitao, H. Nakai, T. Vreven, J. A. Montgomery, Jr., 
 J. E. Peralta, F. Ogliaro, M. Bearpark, J. J. Heyd, E. Brothers, 
 K. N. Kudin, V. N. Staroverov, T. Keith, R. Kobayashi, J. Normand, 
 K. Raghavachari, A. Rendell, J. C. Burant, S. S. Iyengar, J. Tomasi, 
 M. Cossi, N. Rega, J. M. Millam, M. Klene, J. E. Knox, J. B. Cross, 
 V. Bakken, C. Adamo, J. Jaramillo, R. Gomperts, R. E. Stratmann, 
 O. Yazyev, A. J. Austin, R. Cammi, C. Pomelli, J. W. Ochterski, 
 R. L. Martin, K. Morokuma, V. G. Zakrzewski, G. A. Voth, 
 P. Salvador, J. J. Dannenberg, S. Dapprich, A. D. Daniels, 
 O. Farkas, J. B. Foresman, J. V. Ortiz, J. Cioslowski, 
 and D. J. Fox, Gaussian, Inc., Wallingford CT, 2013.
 
 ******************************************
 Gaussian 09:  AS64L-G09RevD.01 24-Apr-2013
                 5-Dec-2018 
 ******************************************
 %Chk=CH400308
 %Mem=2GB
 %NProcShared=16
 Will use up to   16 processors via shared memory.
 -----------------------------------------------------------
 #T M05/Gen test Massage Symmetry=None SCF=(tight,maxcyc=60)
 -----------------------------------------------------------
 -------
 M05 opt
 -------
 Symbolic Z-matrix:
 Charge =  0 Multiplicity = 1
 6                     0.        0.        0. 
 1                     1.00621   0.        0.46209 
 1                    -0.69514   0.58885   0.6293 
 1                     0.05729   0.45208  -1.00912 
 1                    -0.36836  -1.04093  -0.08227 
 6-Bq                  0.        0.        3.70308 
 1-Bq                 -0.7298    0.82744   3.60973 
 1-Bq                 -0.49708  -0.88166   4.15204 
 1-Bq                  0.38726  -0.26545   2.70031 
 1-Bq                  0.83963   0.31967   4.35024 
 
                    Distance matrix (angstroms):
                    1          2          3          4          5
     1  C    0.000000
     2  H    1.107243   0.000000
     3  H    1.107243   1.808119   0.000000
     4  H    1.107243   1.808119   1.808119   0.000000
     5  H    1.107243   1.808119   1.808119   1.808119   0.000000
     6  C    3.703081   3.393592   3.205943   4.734186   3.943110
     7  H    3.774580   3.688638   2.990166   4.700451   4.153596
     8  H    4.273622   4.080800   3.822472   5.359457   4.239260
     9  H    2.740821   2.337345   2.488067   3.792573   2.985812
    10  H    4.442047   3.904825   4.034026   5.417784   4.791415
                    6          7          8          9         10
     6  C    0.000000
     7  H    1.107243   0.000000
     8  H    1.107243   1.808119   0.000000
     9  H    1.107243   1.808119   1.808119   0.000000
    10  H    1.107243   1.808119   1.808119   1.808119   0.000000
 Symmetry turned off by external request.
 Rotational constants (GHZ):     76.6916052      4.3377632      4.3377632
   276 basis functions,   360 primitive gaussians,   310 cartesian basis functions
     5 alpha electrons        5 beta electrons
       nuclear repulsion energy        13.2261669797 Hartrees.
 IMHF & INEx in M05                  614413                  385587
 NAtoms=   10 NActive=   10 NUniq=   10 SFac= 1.00D+00 NAtFMM=   60 NAOKFM=F Big=F
 ExpMin= 2.53D-02 ExpMax= 8.24D+03 ExpMxC= 2.81D+02 IAcc=3 IRadAn=         5 AccDes= 0.00D+00
 Harris functional with IExCor= 1009 and IRadAn=       5 diagonalized for initial guess.
 HarFok:  IExCor= 1009 AccDes= 0.00D+00 IRadAn=         5 IDoV= 1 UseB2=F ITyADJ=14
 ICtDFT=  3500011 ScaDFX=  1.000000  1.000000  1.000000  1.000000
 FoFCou: FMM=F IPFlag=           0 FMFlag=      100000 FMFlg1=           0
         NFxFlg=           0 DoJE=T BraDBF=F KetDBF=T FulRan=T
         wScrn=  0.000000 ICntrl=     500 IOpCl=  0 I1Cent=   200000004 NGrid=           0
         NMat0=    1 NMatS0=      1 NMatT0=    0 NMatD0=    1 NMtDS0=    0 NMtDT0=    0
 Symmetry not used in FoFCou.
 SCF Done:  E(RM05) =  -44.9243877595     A.U. after    9 cycles
            NFock=  9  Conv=0.97D-08     -V/T= 2.0280

 **********************************************************************

            Population analysis using the SCF density.

 **********************************************************************

 Alpha  occ. eigenvalues --  -11.79334  -0.95365  -0.65714  -0.65712  -0.65711
 Alpha virt. eigenvalues --   -0.07442  -0.00621  -0.00570  -0.00563   0.01193
 Alpha virt. eigenvalues --    0.01604   0.01702   0.03264   0.04428   0.05211
 Alpha virt. eigenvalues --    0.05802   0.05928   0.06786   0.07893   0.08734
 Alpha virt. eigenvalues --    0.09220   0.10336   0.10828   0.12718   0.13663
 Alpha virt. eigenvalues --    0.15527   0.17991   0.19459   0.19861   0.20390
 Alpha virt. eigenvalues --    0.20758   0.21578   0.22280   0.22990   0.23351
 Alpha virt. eigenvalues --    0.24273   0.25125   0.25729   0.26795   0.27379
 Alpha virt. eigenvalues --    0.27652   0.28308   0.29500   0.30330   0.31032
 Alpha virt. eigenvalues --    0.33268   0.34161   0.34596   0.36201   0.37046
 Alpha virt. eigenvalues --    0.37909   0.38166   0.39320   0.39805   0.41297
 Alpha virt. eigenvalues --    0.42097   0.43342   0.46145   0.47113   0.48430
 Alpha virt. eigenvalues --    0.51435   0.51752   0.52567   0.52967   0.54384
 Alpha virt. eigenvalues --    0.57395   0.58190   0.58793   0.59858   0.61088
 Alpha virt. eigenvalues --    0.63389   0.65075   0.65486   0.66927   0.67115
 Alpha virt. eigenvalues --    0.68874   0.70889   0.72513   0.73313   0.74004
 Alpha virt. eigenvalues --    0.75268   0.76436   0.77743   0.79441   0.80623
 Alpha virt. eigenvalues --    0.82307   0.83660   0.85727   0.86622   0.88569
 Alpha virt. eigenvalues --    0.89546   0.92184   0.93511   0.94587   0.94774
 Alpha virt. eigenvalues --    0.95523   0.96706   0.97952   0.99612   1.01409
 Alpha virt. eigenvalues --    1.02160   1.02800   1.03658   1.05606   1.06669
 Alpha virt. eigenvalues --    1.07898   1.08642   1.09165   1.11261   1.12780
 Alpha virt. eigenvalues --    1.14463   1.16840   1.16885   1.19824   1.20406
 Alpha virt. eigenvalues --    1.21568   1.24488   1.26169   1.26728   1.26951
 Alpha virt. eigenvalues --    1.28931   1.30428   1.31920   1.33531   1.34690
 Alpha virt. eigenvalues --    1.36483   1.37229   1.38218   1.39089   1.40086
 Alpha virt. eigenvalues --    1.43190   1.43901   1.46408   1.48327   1.49656
 Alpha virt. eigenvalues --    1.52481   1.52938   1.55022   1.58096   1.60069
 Alpha virt. eigenvalues --    1.64147   1.65937   1.69473   1.71845   1.75231
 Alpha virt. eigenvalues --    1.78324   1.81072   1.82468   1.84080   1.84317
 Alpha virt. eigenvalues --    1.87672   1.89768   1.93880   1.95457   1.97609
 Alpha virt. eigenvalues --    2.01250   2.02705   2.05344   2.05530   2.07227
 Alpha virt. eigenvalues --    2.12455   2.21429   2.28776   2.31059   2.34262
 Alpha virt. eigenvalues --    2.43257   2.46005   2.57537   2.59088   2.59687
 Alpha virt. eigenvalues --    2.64898   2.67244   2.67806   2.72664   2.88075
 Alpha virt. eigenvalues --    3.05286   3.05864   3.07373   3.11002   3.11638
 Alpha virt. eigenvalues --    3.14664   3.17441   3.19000   3.30100   3.30753
 Alpha virt. eigenvalues --    3.33298   3.51448   3.52281   3.53694   3.55252
 Alpha virt. eigenvalues --    3.56418   3.59600   3.62505   3.64848   3.69249
 Alpha virt. eigenvalues --    3.74931   3.97556   3.98486   3.98533   3.99666
 Alpha virt. eigenvalues --    3.99893   4.01659   4.04602   4.07399   4.09027
 Alpha virt. eigenvalues --    4.09775   4.13044   4.13364   4.15106   4.17658
 Alpha virt. eigenvalues --    4.19248   4.25216   4.27423   4.29768   4.34099
 Alpha virt. eigenvalues --    4.35724   4.38019   4.39427   4.43312   4.44123
 Alpha virt. eigenvalues --    4.46158   4.49007   4.51965   4.54647   4.55938
 Alpha virt. eigenvalues --    4.57946   4.59087   4.59978   4.60771   4.66046
 Alpha virt. eigenvalues --    4.79842   4.90394   4.91583   4.92665   4.93081
 Alpha virt. eigenvalues --    4.96562   4.96644   4.98365   5.08283   5.09832
 Alpha virt. eigenvalues --    5.13191   5.14129   5.16960   5.25367   5.26028
 Alpha virt. eigenvalues --    5.26874   5.29236   5.30147   5.31131   5.42451
 Alpha virt. eigenvalues --    5.43946   5.47287   5.47783   5.50938   5.61759
 Alpha virt. eigenvalues --    5.72563   5.73487   5.77252   6.12760   6.12980
 Alpha virt. eigenvalues --    6.15683   6.22297   6.22620   6.80030   6.80472
 Alpha virt. eigenvalues --    6.90592   6.97670   7.63253   7.67036   7.67277
 Alpha virt. eigenvalues --    8.02975   8.05406   8.11367  10.32922  15.46850
 Alpha virt. eigenvalues --   52.76594
          Condensed to atoms (all electrons):
 Mulliken charges:
               1
     1  C   -0.225360
     2  H    0.075127
     3  H    0.197297
     4  H   -0.182781
     5  H    0.062974
     6  C    0.002899
     7  H   -0.005240
     8  H    0.002485
     9  H    0.070647
    10  H    0.001951
 Sum of Mulliken charges =  -0.00000
 Mulliken charges with hydrogens summed into heavy atoms:
               1
     1  C   -0.072741
     6  C    0.072741
 Electronic spatial extent (au):  <R**2>=             36.0920
 Charge=              0.0000 electrons
 Dipole moment (field-independent basis, Debye):
    X=             -0.0003    Y=             -0.0001    Z=             -0.0001  Tot=              0.0003

 Test job not archived.
 1\1\GINC-CHIMERA-NODE24\SP\RM05\Gen\C2H8\CONNORNM\05-Dec-2018\0\\#T M0
 5/Gen test Massage Symmetry=None SCF=(tight,maxcyc=60)\\M05 opt\\0,1\C
 ,0,0.,0.,0.\H,0,1.00620947,0.,0.4620914\H,0,-0.69514128,0.58884771,0.6
 2930353\H,0,0.057289,0.45207983,-1.00912227\H,0,-0.3683572,-1.04092754
 ,-0.08227266\C,0,0.,0.,3.70308079\H,0,-0.72980166,0.82744296,3.6097338
 6\H,0,-0.49708429,-0.88166333,4.1520384\H,0,0.38725707,-0.26545258,2.7
 0030821\H,0,0.83962888,0.31967295,4.35024268\\Version=AS64L-G09RevD.01
 \HF=-44.9243878\RMSD=9.657e-09\Dipole=-0.0001114,-0.0000491,-0.0000208
 \Quadrupole=-0.0010928,-0.0010129,0.0021057,-0.0003214,-0.0005193,-0.0
 012924\PG=Unknown\\@


 HO!  SUCH BUGS AND GOBLINS IN MY LIFE!

                            -- HAMLET, ACT 5, SCENE 2
 Job cpu time:       0 days  0 hours 15 minutes  2.9 seconds.
 File lengths (MBytes):  RWF=     41 Int=      0 D2E=      0 Chk=      4 Scr=      1
 Normal termination of Gaussian 09 at Wed Dec  5 22:05:00 2018.
