 Entering Gaussian System, Link 0=/data/szalewicgrp/connornm/opt/Gaussian/g09-M05-par/g09/g09
 AtFile(1): aug-cc-pVTZ.gbs
 Initial command:
 /data/szalewicgrp/connornm/opt/Gaussian/g09-M05-par/g09/l1.exe "/scratch/local/Gau-19374.inp" -scrdir="/scratch/local/"
 Entering Link 1 = /data/szalewicgrp/connornm/opt/Gaussian/g09-M05-par/g09/l1.exe PID=     19375.
  
 Copyright (c) 1988,1990,1992,1993,1995,1998,2003,2009,2013,
            Gaussian, Inc.  All Rights Reserved.
  
 This is part of the Gaussian(R) 09 program.  It is based on
 the Gaussian(R) 03 system (copyright 2003, Gaussian, Inc.),
 the Gaussian(R) 98 system (copyright 1998, Gaussian, Inc.),
 the Gaussian(R) 94 system (copyright 1995, Gaussian, Inc.),
 the Gaussian 92(TM) system (copyright 1992, Gaussian, Inc.),
 the Gaussian 90(TM) system (copyright 1990, Gaussian, Inc.),
 the Gaussian 88(TM) system (copyright 1988, Gaussian, Inc.),
 the Gaussian 86(TM) system (copyright 1986, Carnegie Mellon
 University), and the Gaussian 82(TM) system (copyright 1983,
 Carnegie Mellon University). Gaussian is a federally registered
 trademark of Gaussian, Inc.
  
 This software contains proprietary and confidential information,
 including trade secrets, belonging to Gaussian, Inc.
  
 This software is provided under written license and may be
 used, copied, transmitted, or stored only in accord with that
 written license.
  
 The following legend is applicable only to US Government
 contracts under FAR:
  
                    RESTRICTED RIGHTS LEGEND
  
 Use, reproduction and disclosure by the US Government is
 subject to restrictions as set forth in subparagraphs (a)
 and (c) of the Commercial Computer Software - Restricted
 Rights clause in FAR 52.227-19.
  
 Gaussian, Inc.
 340 Quinnipiac St., Bldg. 40, Wallingford CT 06492
  
  
 ---------------------------------------------------------------
 Warning -- This program may not be used in any manner that
 competes with the business of Gaussian, Inc. or will provide
 assistance to any competitor of Gaussian, Inc.  The licensee
 of this program is prohibited from giving any competitor of
 Gaussian, Inc. access to this program.  By using this program,
 the user acknowledges that Gaussian, Inc. is engaged in the
 business of creating and licensing software in the field of
 computational chemistry and represents and warrants to the
 licensee that it is not a competitor of Gaussian, Inc. and that
 it will not use this program in any manner prohibited above.
 ---------------------------------------------------------------
  

 Cite this work as:
 Gaussian 09, Revision D.01,
 M. J. Frisch, G. W. Trucks, H. B. Schlegel, G. E. Scuseria, 
 M. A. Robb, J. R. Cheeseman, G. Scalmani, V. Barone, B. Mennucci, 
 G. A. Petersson, H. Nakatsuji, M. Caricato, X. Li, H. P. Hratchian, 
 A. F. Izmaylov, J. Bloino, G. Zheng, J. L. Sonnenberg, M. Hada, 
 M. Ehara, K. Toyota, R. Fukuda, J. Hasegawa, M. Ishida, T. Nakajima, 
 Y. Honda, O. Kitao, H. Nakai, T. Vreven, J. A. Montgomery, Jr., 
 J. E. Peralta, F. Ogliaro, M. Bearpark, J. J. Heyd, E. Brothers, 
 K. N. Kudin, V. N. Staroverov, T. Keith, R. Kobayashi, J. Normand, 
 K. Raghavachari, A. Rendell, J. C. Burant, S. S. Iyengar, J. Tomasi, 
 M. Cossi, N. Rega, J. M. Millam, M. Klene, J. E. Knox, J. B. Cross, 
 V. Bakken, C. Adamo, J. Jaramillo, R. Gomperts, R. E. Stratmann, 
 O. Yazyev, A. J. Austin, R. Cammi, C. Pomelli, J. W. Ochterski, 
 R. L. Martin, K. Morokuma, V. G. Zakrzewski, G. A. Voth, 
 P. Salvador, J. J. Dannenberg, S. Dapprich, A. D. Daniels, 
 O. Farkas, J. B. Foresman, J. V. Ortiz, J. Cioslowski, 
 and D. J. Fox, Gaussian, Inc., Wallingford CT, 2013.
 
 ******************************************
 Gaussian 09:  AS64L-G09RevD.01 24-Apr-2013
                 6-Dec-2018 
 ******************************************
 %Chk=CH400199
 %Mem=2GB
 %NProcShared=16
 Will use up to   16 processors via shared memory.
 -----------------------------------------------------------
 #T M05/Gen test Massage Symmetry=None SCF=(tight,maxcyc=60)
 -----------------------------------------------------------
 -------
 M05 opt
 -------
 Symbolic Z-matrix:
 Charge =  0 Multiplicity = 1
 6                     0.        0.        0. 
 1                     0.97193   0.        0.53041 
 1                    -0.45497  -1.00747   0.06323 
 1                    -0.67644   0.74055   0.46904 
 1                     0.15948   0.26691  -1.06269 
 6-Bq                  0.        0.        3.63545 
 1-Bq                  0.10625   0.91175   3.01625 
 1-Bq                  0.45522   0.17395   4.62969 
 1-Bq                 -1.07399  -0.23976   3.75811 
 1-Bq                  0.51252  -0.84594   3.13776 
 
                    Distance matrix (angstroms):
                    1          2          3          4          5
     1  C    0.000000
     2  H    1.107243   0.000000
     3  H    1.107243   1.808119   0.000000
     4  H    1.107243   1.808119   1.808119   0.000000
     5  H    1.107242   1.808119   1.808119   1.808119   0.000000
     6  C    3.635453   3.253600   3.739352   3.321465   4.708420
     7  H    3.152835   2.785694   3.566330   2.670242   4.129943
     8  H    4.655264   4.135369   4.803822   4.348866   5.700811
     9  H    3.915906   3.829006   3.824222   3.454997   5.001826
    10  H    3.289960   2.779377   3.227207   3.324549   4.359687
                    6          7          8          9         10
     6  C    0.000000
     7  H    1.107243   0.000000
     8  H    1.107242   1.808119   0.000000
     9  H    1.107243   1.808119   1.808119   0.000000
    10  H    1.107243   1.808119   1.808119   1.808119   0.000000
 Symmetry turned off by external request.
 Rotational constants (GHZ):     76.6916053      4.4911110      4.4911110
   276 basis functions,   360 primitive gaussians,   310 cartesian basis functions
     5 alpha electrons        5 beta electrons
       nuclear repulsion energy        13.2261669800 Hartrees.
 IMHF & INEx in M05                  614413                  385587
 NAtoms=   10 NActive=   10 NUniq=   10 SFac= 1.00D+00 NAtFMM=   60 NAOKFM=F Big=F
 ExpMin= 2.53D-02 ExpMax= 8.24D+03 ExpMxC= 2.81D+02 IAcc=3 IRadAn=         5 AccDes= 0.00D+00
 Harris functional with IExCor= 1009 and IRadAn=       5 diagonalized for initial guess.
 HarFok:  IExCor= 1009 AccDes= 0.00D+00 IRadAn=         5 IDoV= 1 UseB2=F ITyADJ=14
 ICtDFT=  3500011 ScaDFX=  1.000000  1.000000  1.000000  1.000000
 FoFCou: FMM=F IPFlag=           0 FMFlag=      100000 FMFlg1=           0
         NFxFlg=           0 DoJE=T BraDBF=F KetDBF=T FulRan=T
         wScrn=  0.000000 ICntrl=     500 IOpCl=  0 I1Cent=   200000004 NGrid=           0
         NMat0=    1 NMatS0=      1 NMatT0=    0 NMatD0=    1 NMtDS0=    0 NMtDT0=    0
 Symmetry not used in FoFCou.
 EnCoef did   100 forward-backward iterations
 Restarting incremental Fock formation.
 SCF Done:  E(RM05) =  -47.0985782120     A.U. after   21 cycles
            NFock= 21  Conv=0.55D-08     -V/T= 2.0184

 **********************************************************************

            Population analysis using the SCF density.

 **********************************************************************

 Alpha  occ. eigenvalues --  -11.25577  -0.78132  -0.59330  -0.59326  -0.59325
 Alpha virt. eigenvalues --   -0.27382  -0.22598  -0.22572  -0.22555  -0.18547
 Alpha virt. eigenvalues --   -0.18315  -0.18286  -0.16589  -0.16234  -0.08197
 Alpha virt. eigenvalues --   -0.06698  -0.06496  -0.05777  -0.05123  -0.04194
 Alpha virt. eigenvalues --   -0.03773  -0.03110  -0.00563  -0.00536  -0.00488
 Alpha virt. eigenvalues --    0.00774   0.02580   0.03841   0.04309   0.04466
 Alpha virt. eigenvalues --    0.04941   0.06698   0.06790   0.07310   0.07539
 Alpha virt. eigenvalues --    0.08021   0.09152   0.09902   0.09967   0.10591
 Alpha virt. eigenvalues --    0.10856   0.11736   0.12196   0.13129   0.14698
 Alpha virt. eigenvalues --    0.15896   0.17963   0.18753   0.19503   0.20188
 Alpha virt. eigenvalues --    0.21903   0.23854   0.24462   0.25654   0.26075
 Alpha virt. eigenvalues --    0.26438   0.28161   0.28867   0.29418   0.31566
 Alpha virt. eigenvalues --    0.33173   0.33574   0.34371   0.34593   0.35107
 Alpha virt. eigenvalues --    0.36038   0.36761   0.37628   0.38478   0.39167
 Alpha virt. eigenvalues --    0.40091   0.40878   0.41883   0.43588   0.44103
 Alpha virt. eigenvalues --    0.44469   0.45743   0.45850   0.47198   0.48504
 Alpha virt. eigenvalues --    0.49737   0.49911   0.51104   0.51977   0.53945
 Alpha virt. eigenvalues --    0.54025   0.55113   0.55599   0.55948   0.57261
 Alpha virt. eigenvalues --    0.58747   0.58945   0.60329   0.62667   0.63310
 Alpha virt. eigenvalues --    0.64697   0.68197   0.71307   0.75470   0.75898
 Alpha virt. eigenvalues --    0.77678   0.79704   0.80708   0.82057   0.82646
 Alpha virt. eigenvalues --    0.83529   0.83960   0.85157   0.85429   0.85993
 Alpha virt. eigenvalues --    0.87069   0.88606   0.90536   0.92684   0.92975
 Alpha virt. eigenvalues --    0.93575   0.95233   0.95641   0.96237   0.97362
 Alpha virt. eigenvalues --    0.98994   0.99502   1.01740   1.02411   1.03846
 Alpha virt. eigenvalues --    1.04611   1.06484   1.08287   1.08414   1.10143
 Alpha virt. eigenvalues --    1.11650   1.12340   1.13486   1.15440   1.16978
 Alpha virt. eigenvalues --    1.18618   1.19529   1.20504   1.21657   1.23007
 Alpha virt. eigenvalues --    1.23891   1.25877   1.27512   1.28411   1.28841
 Alpha virt. eigenvalues --    1.30155   1.30924   1.37336   1.44706   1.47676
 Alpha virt. eigenvalues --    1.48794   1.50944   1.53104   1.56121   1.58177
 Alpha virt. eigenvalues --    1.63203   1.63963   1.69814   1.71302   1.77994
 Alpha virt. eigenvalues --    1.80825   1.83196   1.87244   1.88922   1.90567
 Alpha virt. eigenvalues --    1.93517   1.95264   1.97286   1.99312   2.01111
 Alpha virt. eigenvalues --    2.01700   2.05681   2.07064   2.08020   2.13282
 Alpha virt. eigenvalues --    2.15287   2.15655   2.15906   2.16063   2.20153
 Alpha virt. eigenvalues --    2.23369   2.24669   2.26886   2.28390   2.29408
 Alpha virt. eigenvalues --    2.30060   2.31062   2.31244   2.33304   2.34350
 Alpha virt. eigenvalues --    2.35656   2.51373   2.52818   2.56189   2.61319
 Alpha virt. eigenvalues --    2.61678   2.63680   2.64468   2.64672   2.65134
 Alpha virt. eigenvalues --    2.65586   2.66854   2.67407   2.68237   2.68868
 Alpha virt. eigenvalues --    2.72850   2.77097   2.92303   2.92419   2.94187
 Alpha virt. eigenvalues --    3.11106   3.22981   3.23179   3.23763   3.25784
 Alpha virt. eigenvalues --    3.26009   3.27006   3.27366   3.28772   3.54083
 Alpha virt. eigenvalues --    3.76015   3.76536   3.77794   3.78867   3.79283
 Alpha virt. eigenvalues --    3.82937   3.86370   3.87447   3.91850   4.03642
 Alpha virt. eigenvalues --    4.05767   4.12093   4.15092   4.20612   4.25242
 Alpha virt. eigenvalues --    4.30465   4.35445   4.37821   4.40302   4.42439
 Alpha virt. eigenvalues --    4.43513   4.45888   4.58331   4.71700   4.75613
 Alpha virt. eigenvalues --    4.77107   4.85861   4.92689   5.03034   5.11318
 Alpha virt. eigenvalues --    5.11597   5.12869   5.14923   5.23678   5.28680
 Alpha virt. eigenvalues --    5.34041   5.36392   5.37475   5.94264   5.94967
 Alpha virt. eigenvalues --    5.98405   6.04645   6.07143   6.58428   6.63978
 Alpha virt. eigenvalues --    6.66867   6.80458   7.39968   7.48673   7.56624
 Alpha virt. eigenvalues --    7.88317   7.90098   7.93670  10.13063  12.70739
 Alpha virt. eigenvalues --   52.22232
          Condensed to atoms (all electrons):
 Mulliken charges:
               1
     1  C   -0.130127
     2  H    0.185017
     3  H    0.162915
     4  H    0.189928
     5  H   -0.423101
     6  C   -0.024421
     7  H    0.053265
     8  H   -0.001514
     9  H   -0.007464
    10  H   -0.004497
 Sum of Mulliken charges =   0.00000
 Mulliken charges with hydrogens summed into heavy atoms:
               1
     1  C   -0.015369
     6  C    0.015369
 Electronic spatial extent (au):  <R**2>=             40.0918
 Charge=              0.0000 electrons
 Dipole moment (field-independent basis, Debye):
    X=              0.0019    Y=              0.0010    Z=             -0.0065  Tot=              0.0068

 Test job not archived.
 1\1\GINC-CHIMERA-NODE62\SP\RM05\Gen\C2H8\CONNORNM\06-Dec-2018\0\\#T M0
 5/Gen test Massage Symmetry=None SCF=(tight,maxcyc=60)\\M05 opt\\0,1\C
 ,0,0.,0.,0.\H,0,0.97192954,0.,0.53041392\H,0,-0.45497216,-1.00746616,0
 .06323156\H,0,-0.67643729,0.74055142,0.46904387\H,0,0.15947991,0.26691
 474,-1.06268934\C,0,0.,0.,3.63545272\H,0,0.10625135,0.91175098,3.01625
 423\H,0,0.45522194,0.17394891,4.62968645\H,0,-1.07399116,-0.23975941,3
 .75810822\H,0,0.51251787,-0.84594048,3.13776196\\Version=AS64L-G09RevD
 .01\HF=-47.0985782\RMSD=5.459e-09\Dipole=0.0007404,0.0003824,-0.002559
 5\Quadrupole=0.0039622,-0.000775,-0.0031872,-0.002236,0.001302,0.00022
 87\PG=Unknown\\@


 Statistics are no substitute for judgment.
                            -- Henry Clay
 Job cpu time:       0 days  0 hours 34 minutes 48.7 seconds.
 File lengths (MBytes):  RWF=     41 Int=      0 D2E=      0 Chk=      4 Scr=      1
 Normal termination of Gaussian 09 at Thu Dec  6 13:18:07 2018.
