 Entering Gaussian System, Link 0=/data/szalewicgrp/connornm/opt/Gaussian/g09-M05-par/g09/g09
 AtFile(1): aug-cc-pVTZ.gbs
 Initial command:
 /data/szalewicgrp/connornm/opt/Gaussian/g09-M05-par/g09/l1.exe "/scratch/local/Gau-37661.inp" -scrdir="/scratch/local/"
 Entering Link 1 = /data/szalewicgrp/connornm/opt/Gaussian/g09-M05-par/g09/l1.exe PID=     37662.
  
 Copyright (c) 1988,1990,1992,1993,1995,1998,2003,2009,2013,
            Gaussian, Inc.  All Rights Reserved.
  
 This is part of the Gaussian(R) 09 program.  It is based on
 the Gaussian(R) 03 system (copyright 2003, Gaussian, Inc.),
 the Gaussian(R) 98 system (copyright 1998, Gaussian, Inc.),
 the Gaussian(R) 94 system (copyright 1995, Gaussian, Inc.),
 the Gaussian 92(TM) system (copyright 1992, Gaussian, Inc.),
 the Gaussian 90(TM) system (copyright 1990, Gaussian, Inc.),
 the Gaussian 88(TM) system (copyright 1988, Gaussian, Inc.),
 the Gaussian 86(TM) system (copyright 1986, Carnegie Mellon
 University), and the Gaussian 82(TM) system (copyright 1983,
 Carnegie Mellon University). Gaussian is a federally registered
 trademark of Gaussian, Inc.
  
 This software contains proprietary and confidential information,
 including trade secrets, belonging to Gaussian, Inc.
  
 This software is provided under written license and may be
 used, copied, transmitted, or stored only in accord with that
 written license.
  
 The following legend is applicable only to US Government
 contracts under FAR:
  
                    RESTRICTED RIGHTS LEGEND
  
 Use, reproduction and disclosure by the US Government is
 subject to restrictions as set forth in subparagraphs (a)
 and (c) of the Commercial Computer Software - Restricted
 Rights clause in FAR 52.227-19.
  
 Gaussian, Inc.
 340 Quinnipiac St., Bldg. 40, Wallingford CT 06492
  
  
 ---------------------------------------------------------------
 Warning -- This program may not be used in any manner that
 competes with the business of Gaussian, Inc. or will provide
 assistance to any competitor of Gaussian, Inc.  The licensee
 of this program is prohibited from giving any competitor of
 Gaussian, Inc. access to this program.  By using this program,
 the user acknowledges that Gaussian, Inc. is engaged in the
 business of creating and licensing software in the field of
 computational chemistry and represents and warrants to the
 licensee that it is not a competitor of Gaussian, Inc. and that
 it will not use this program in any manner prohibited above.
 ---------------------------------------------------------------
  

 Cite this work as:
 Gaussian 09, Revision D.01,
 M. J. Frisch, G. W. Trucks, H. B. Schlegel, G. E. Scuseria, 
 M. A. Robb, J. R. Cheeseman, G. Scalmani, V. Barone, B. Mennucci, 
 G. A. Petersson, H. Nakatsuji, M. Caricato, X. Li, H. P. Hratchian, 
 A. F. Izmaylov, J. Bloino, G. Zheng, J. L. Sonnenberg, M. Hada, 
 M. Ehara, K. Toyota, R. Fukuda, J. Hasegawa, M. Ishida, T. Nakajima, 
 Y. Honda, O. Kitao, H. Nakai, T. Vreven, J. A. Montgomery, Jr., 
 J. E. Peralta, F. Ogliaro, M. Bearpark, J. J. Heyd, E. Brothers, 
 K. N. Kudin, V. N. Staroverov, T. Keith, R. Kobayashi, J. Normand, 
 K. Raghavachari, A. Rendell, J. C. Burant, S. S. Iyengar, J. Tomasi, 
 M. Cossi, N. Rega, J. M. Millam, M. Klene, J. E. Knox, J. B. Cross, 
 V. Bakken, C. Adamo, J. Jaramillo, R. Gomperts, R. E. Stratmann, 
 O. Yazyev, A. J. Austin, R. Cammi, C. Pomelli, J. W. Ochterski, 
 R. L. Martin, K. Morokuma, V. G. Zakrzewski, G. A. Voth, 
 P. Salvador, J. J. Dannenberg, S. Dapprich, A. D. Daniels, 
 O. Farkas, J. B. Foresman, J. V. Ortiz, J. Cioslowski, 
 and D. J. Fox, Gaussian, Inc., Wallingford CT, 2013.
 
 ******************************************
 Gaussian 09:  AS64L-G09RevD.01 24-Apr-2013
                 6-Dec-2018 
 ******************************************
 %Chk=CH400292
 %Mem=2GB
 %NProcShared=16
 Will use up to   16 processors via shared memory.
 -----------------------------------------------------------
 #T M05/Gen test Massage Symmetry=None SCF=(tight,maxcyc=60)
 -----------------------------------------------------------
 -------
 M05 opt
 -------
 Symbolic Z-matrix:
 Charge =  0 Multiplicity = 1
 6                     0.        0.        0. 
 1                     0.94241   0.        0.58125 
 1                    -0.30151  -1.04364  -0.21422 
 1                    -0.79491   0.50099   0.58576 
 1                     0.15401   0.54265  -0.95278 
 6-Bq                  0.        0.        4.28526 
 1-Bq                  1.04281  -0.03299   3.91452 
 1-Bq                 -0.61453  -0.73028   3.72399 
 1-Bq                 -0.01686  -0.25435   5.36276 
 1-Bq                 -0.41142   1.01762   4.13977 
 
                    Distance matrix (angstroms):
                    1          2          3          4          5
     1  C    0.000000
     2  H    1.107243   0.000000
     3  H    1.107242   1.808119   0.000000
     4  H    1.107243   1.808119   1.808119   0.000000
     5  H    1.107243   1.808119   1.808119   1.808119   0.000000
     6  C    4.285257   3.822020   4.628757   3.816957   5.268326
     7  H    4.051169   3.334945   4.458147   3.839656   4.981157
     8  H    3.844350   3.582485   3.963035   3.375949   4.907462
     9  H    5.368812   4.883415   5.639741   4.898533   6.367925
    10  H    4.282817   3.941003   4.818519   3.611782   5.145815
                    6          7          8          9         10
     6  C    0.000000
     7  H    1.107243   0.000000
     8  H    1.107243   1.808119   0.000000
     9  H    1.107243   1.808119   1.808119   0.000000
    10  H    1.107242   1.808119   1.808119   1.808119   0.000000
 Symmetry turned off by external request.
 Rotational constants (GHZ):     76.6916054      3.2862790      3.2862790
   276 basis functions,   360 primitive gaussians,   310 cartesian basis functions
     5 alpha electrons        5 beta electrons
       nuclear repulsion energy        13.2261669880 Hartrees.
 IMHF & INEx in M05                  614413                  385587
 NAtoms=   10 NActive=   10 NUniq=   10 SFac= 1.00D+00 NAtFMM=   60 NAOKFM=F Big=F
 ExpMin= 2.53D-02 ExpMax= 8.24D+03 ExpMxC= 2.81D+02 IAcc=3 IRadAn=         5 AccDes= 0.00D+00
 Harris functional with IExCor= 1009 and IRadAn=       5 diagonalized for initial guess.
 HarFok:  IExCor= 1009 AccDes= 0.00D+00 IRadAn=         5 IDoV= 1 UseB2=F ITyADJ=14
 ICtDFT=  3500011 ScaDFX=  1.000000  1.000000  1.000000  1.000000
 FoFCou: FMM=F IPFlag=           0 FMFlag=      100000 FMFlg1=           0
         NFxFlg=           0 DoJE=T BraDBF=F KetDBF=T FulRan=T
         wScrn=  0.000000 ICntrl=     500 IOpCl=  0 I1Cent=   200000004 NGrid=           0
         NMat0=    1 NMatS0=      1 NMatT0=    0 NMatD0=    1 NMtDS0=    0 NMtDT0=    0
 Symmetry not used in FoFCou.
 SCF Done:  E(RM05) =  -40.9122226112     A.U. after    7 cycles
            NFock=  7  Conv=0.38D-08     -V/T= 2.0128

 **********************************************************************

            Population analysis using the SCF density.

 **********************************************************************

 Alpha  occ. eigenvalues --  -10.74528  -0.82768  -0.48751  -0.48751  -0.48751
 Alpha virt. eigenvalues --   -0.00114   0.02286   0.02818   0.02975   0.04206
 Alpha virt. eigenvalues --    0.05133   0.05496   0.06635   0.08216   0.08730
 Alpha virt. eigenvalues --    0.09993   0.10777   0.10930   0.11784   0.11950
 Alpha virt. eigenvalues --    0.12965   0.15010   0.15634   0.16199   0.16647
 Alpha virt. eigenvalues --    0.21262   0.21455   0.22153   0.24009   0.25064
 Alpha virt. eigenvalues --    0.25637   0.26693   0.27847   0.28089   0.28396
 Alpha virt. eigenvalues --    0.29046   0.29461   0.29952   0.30437   0.31129
 Alpha virt. eigenvalues --    0.32542   0.32882   0.34137   0.34568   0.34667
 Alpha virt. eigenvalues --    0.35596   0.35750   0.37144   0.37564   0.38864
 Alpha virt. eigenvalues --    0.41006   0.41342   0.42234   0.44037   0.44322
 Alpha virt. eigenvalues --    0.46019   0.46898   0.47202   0.48574   0.50629
 Alpha virt. eigenvalues --    0.52697   0.55599   0.56422   0.57356   0.60980
 Alpha virt. eigenvalues --    0.61520   0.64109   0.65965   0.66180   0.66658
 Alpha virt. eigenvalues --    0.69941   0.72525   0.73823   0.75368   0.78114
 Alpha virt. eigenvalues --    0.79778   0.80204   0.85018   0.85822   0.85912
 Alpha virt. eigenvalues --    0.87236   0.87404   0.89802   0.90011   0.91952
 Alpha virt. eigenvalues --    0.92925   0.94798   0.95047   0.96075   0.96668
 Alpha virt. eigenvalues --    0.96941   0.98419   0.99053   0.99586   1.02071
 Alpha virt. eigenvalues --    1.02973   1.03389   1.03870   1.04118   1.05000
 Alpha virt. eigenvalues --    1.05613   1.05861   1.06712   1.07296   1.08490
 Alpha virt. eigenvalues --    1.09223   1.10673   1.12649   1.13256   1.13823
 Alpha virt. eigenvalues --    1.14579   1.17214   1.18490   1.19557   1.21885
 Alpha virt. eigenvalues --    1.23373   1.25039   1.26146   1.29832   1.30437
 Alpha virt. eigenvalues --    1.33743   1.37122   1.37797   1.37829   1.38517
 Alpha virt. eigenvalues --    1.41191   1.44386   1.44969   1.46131   1.46959
 Alpha virt. eigenvalues --    1.47662   1.48679   1.50229   1.53934   1.58750
 Alpha virt. eigenvalues --    1.59420   1.62688   1.66811   1.68029   1.69455
 Alpha virt. eigenvalues --    1.70001   1.71701   1.73261   1.76619   1.77771
 Alpha virt. eigenvalues --    1.78890   1.83759   1.85783   1.86138   1.93413
 Alpha virt. eigenvalues --    1.94963   1.96253   1.97354   2.00942   2.01198
 Alpha virt. eigenvalues --    2.03622   2.04124   2.05280   2.06975   2.07814
 Alpha virt. eigenvalues --    2.09377   2.26603   2.28516   2.30693   2.38658
 Alpha virt. eigenvalues --    2.44622   2.45444   2.64335   2.67796   2.68265
 Alpha virt. eigenvalues --    2.70878   2.82251   2.88087   2.88986   2.90934
 Alpha virt. eigenvalues --    3.18930   3.21263   3.21283   3.22578   3.23957
 Alpha virt. eigenvalues --    3.26075   3.27369   3.29756   3.57387   3.58038
 Alpha virt. eigenvalues --    3.58262   3.64234   3.71292   3.71889   3.72052
 Alpha virt. eigenvalues --    3.73113   3.74645   3.75736   3.81055   3.82699
 Alpha virt. eigenvalues --    3.82887   3.98441   3.99818   4.01502   4.02368
 Alpha virt. eigenvalues --    4.02411   4.02596   4.15761   4.16941   4.18618
 Alpha virt. eigenvalues --    4.19175   4.20411   4.31883   4.33397   4.34712
 Alpha virt. eigenvalues --    4.35797   4.36030   4.37565   4.38391   4.40041
 Alpha virt. eigenvalues --    4.43274   4.46070   4.48826   4.50066   4.50293
 Alpha virt. eigenvalues --    4.50322   4.53685   4.54823   4.59176   4.60139
 Alpha virt. eigenvalues --    4.62730   4.74478   4.76918   4.78540   4.79004
 Alpha virt. eigenvalues --    4.79195   4.91329   4.91585   4.94597   5.14000
 Alpha virt. eigenvalues --    5.14364   5.14772   5.14942   5.15551   5.16808
 Alpha virt. eigenvalues --    5.22412   5.28969   5.29162   5.29827   5.32123
 Alpha virt. eigenvalues --    5.32659   5.40716   5.41118   5.46977   5.47389
 Alpha virt. eigenvalues --    5.48331   5.52374   5.57760   5.58045   5.59100
 Alpha virt. eigenvalues --    6.04698   6.04913   6.06837   6.12880   6.13962
 Alpha virt. eigenvalues --    6.14294   6.23608   6.23616   6.79817   6.80715
 Alpha virt. eigenvalues --    6.81771   6.95779   7.64697   7.64895   7.67900
 Alpha virt. eigenvalues --    8.04021   8.05313   8.08516  10.26447  16.63469
 Alpha virt. eigenvalues --   52.24729
          Condensed to atoms (all electrons):
 Mulliken charges:
               1
     1  C   -1.828770
     2  H    0.467597
     3  H    0.462400
     4  H    0.457829
     5  H    0.438840
     6  C    0.004958
     7  H   -0.000781
     8  H   -0.001087
     9  H   -0.000126
    10  H   -0.000859
 Sum of Mulliken charges =   0.00000
 Mulliken charges with hydrogens summed into heavy atoms:
               1
     1  C   -0.002105
     6  C    0.002105
 Electronic spatial extent (au):  <R**2>=             36.5431
 Charge=              0.0000 electrons
 Dipole moment (field-independent basis, Debye):
    X=              0.0000    Y=             -0.0001    Z=             -0.0001  Tot=              0.0002

 Test job not archived.
 1\1\GINC-CHIMERA-NODE40\SP\RM05\Gen\C2H8\CONNORNM\06-Dec-2018\0\\#T M0
 5/Gen test Massage Symmetry=None SCF=(tight,maxcyc=60)\\M05 opt\\0,1\C
 ,0,0.,0.,0.\H,0,0.94241145,0.,0.58124575\H,0,-0.30151086,-1.04364111,-
 0.2142204\H,0,-0.79490947,0.50099056,0.58575878\H,0,0.15400889,0.54265
 056,-0.95278413\C,0,0.,0.,4.28525708\H,0,1.04280794,-0.03298856,3.9145
 1549\H,0,-0.61453276,-0.73028045,3.72398539\H,0,-0.01685704,-0.2543530
 7,5.36275711\H,0,-0.41141813,1.01762207,4.13977032\\Version=AS64L-G09R
 evD.01\HF=-40.9122226\RMSD=3.808e-09\Dipole=0.0000014,-0.0000322,-0.00
 00583\Quadrupole=0.000337,-0.0005135,0.0001765,-0.0002167,-0.0000434,-
 0.0002207\PG=Unknown\\@


 The earth never tires,
 The earth is rude, silent, incomprehensible at first,
 Nature is rude and incomprehensible at first,
 Be not discouraged, keep on,
 There are divine things well envelop'd,
 I swear to you there are divine things more beautiful than words can tell.
                                 -- Walt Whitman
 Job cpu time:       0 days  0 hours 11 minutes  2.9 seconds.
 File lengths (MBytes):  RWF=     41 Int=      0 D2E=      0 Chk=      4 Scr=      1
 Normal termination of Gaussian 09 at Thu Dec  6 13:20:37 2018.
