 Entering Gaussian System, Link 0=/data/szalewicgrp/connornm/opt/Gaussian/g09-M05-par/g09/g09
 AtFile(1): aug-cc-pVTZ.gbs
 Initial command:
 /data/szalewicgrp/connornm/opt/Gaussian/g09-M05-par/g09/l1.exe "/scratch/local/Gau-1825.inp" -scrdir="/scratch/local/"
 Entering Link 1 = /data/szalewicgrp/connornm/opt/Gaussian/g09-M05-par/g09/l1.exe PID=      1826.
  
 Copyright (c) 1988,1990,1992,1993,1995,1998,2003,2009,2013,
            Gaussian, Inc.  All Rights Reserved.
  
 This is part of the Gaussian(R) 09 program.  It is based on
 the Gaussian(R) 03 system (copyright 2003, Gaussian, Inc.),
 the Gaussian(R) 98 system (copyright 1998, Gaussian, Inc.),
 the Gaussian(R) 94 system (copyright 1995, Gaussian, Inc.),
 the Gaussian 92(TM) system (copyright 1992, Gaussian, Inc.),
 the Gaussian 90(TM) system (copyright 1990, Gaussian, Inc.),
 the Gaussian 88(TM) system (copyright 1988, Gaussian, Inc.),
 the Gaussian 86(TM) system (copyright 1986, Carnegie Mellon
 University), and the Gaussian 82(TM) system (copyright 1983,
 Carnegie Mellon University). Gaussian is a federally registered
 trademark of Gaussian, Inc.
  
 This software contains proprietary and confidential information,
 including trade secrets, belonging to Gaussian, Inc.
  
 This software is provided under written license and may be
 used, copied, transmitted, or stored only in accord with that
 written license.
  
 The following legend is applicable only to US Government
 contracts under FAR:
  
                    RESTRICTED RIGHTS LEGEND
  
 Use, reproduction and disclosure by the US Government is
 subject to restrictions as set forth in subparagraphs (a)
 and (c) of the Commercial Computer Software - Restricted
 Rights clause in FAR 52.227-19.
  
 Gaussian, Inc.
 340 Quinnipiac St., Bldg. 40, Wallingford CT 06492
  
  
 ---------------------------------------------------------------
 Warning -- This program may not be used in any manner that
 competes with the business of Gaussian, Inc. or will provide
 assistance to any competitor of Gaussian, Inc.  The licensee
 of this program is prohibited from giving any competitor of
 Gaussian, Inc. access to this program.  By using this program,
 the user acknowledges that Gaussian, Inc. is engaged in the
 business of creating and licensing software in the field of
 computational chemistry and represents and warrants to the
 licensee that it is not a competitor of Gaussian, Inc. and that
 it will not use this program in any manner prohibited above.
 ---------------------------------------------------------------
  

 Cite this work as:
 Gaussian 09, Revision D.01,
 M. J. Frisch, G. W. Trucks, H. B. Schlegel, G. E. Scuseria, 
 M. A. Robb, J. R. Cheeseman, G. Scalmani, V. Barone, B. Mennucci, 
 G. A. Petersson, H. Nakatsuji, M. Caricato, X. Li, H. P. Hratchian, 
 A. F. Izmaylov, J. Bloino, G. Zheng, J. L. Sonnenberg, M. Hada, 
 M. Ehara, K. Toyota, R. Fukuda, J. Hasegawa, M. Ishida, T. Nakajima, 
 Y. Honda, O. Kitao, H. Nakai, T. Vreven, J. A. Montgomery, Jr., 
 J. E. Peralta, F. Ogliaro, M. Bearpark, J. J. Heyd, E. Brothers, 
 K. N. Kudin, V. N. Staroverov, T. Keith, R. Kobayashi, J. Normand, 
 K. Raghavachari, A. Rendell, J. C. Burant, S. S. Iyengar, J. Tomasi, 
 M. Cossi, N. Rega, J. M. Millam, M. Klene, J. E. Knox, J. B. Cross, 
 V. Bakken, C. Adamo, J. Jaramillo, R. Gomperts, R. E. Stratmann, 
 O. Yazyev, A. J. Austin, R. Cammi, C. Pomelli, J. W. Ochterski, 
 R. L. Martin, K. Morokuma, V. G. Zakrzewski, G. A. Voth, 
 P. Salvador, J. J. Dannenberg, S. Dapprich, A. D. Daniels, 
 O. Farkas, J. B. Foresman, J. V. Ortiz, J. Cioslowski, 
 and D. J. Fox, Gaussian, Inc., Wallingford CT, 2013.
 
 ******************************************
 Gaussian 09:  AS64L-G09RevD.01 24-Apr-2013
                 5-Dec-2018 
 ******************************************
 %Chk=CH400063
 %Mem=2GB
 %NProcShared=16
 Will use up to   16 processors via shared memory.
 -----------------------------------------------------------
 #T M05/Gen test Massage Symmetry=None SCF=(tight,maxcyc=60)
 -----------------------------------------------------------
 -------
 M05 opt
 -------
 Symbolic Z-matrix:
 Charge =  0 Multiplicity = 1
 6                     0.        0.        0. 
 1                     1.10656   0.        0.03898 
 1                    -0.40368   0.33298   0.97578 
 1                    -0.34129   0.69035  -0.79557 
 1                    -0.36159  -1.02333  -0.21919 
 6-Bq                  0.        0.        4.31078 
 1-Bq                 -0.28222  -0.63592   5.17214 
 1-Bq                  1.03432  -0.24082   3.99744 
 1-Bq                 -0.69414  -0.18929   3.46916 
 1-Bq                 -0.05796   1.06603   4.60438 
 
                    Distance matrix (angstroms):
                    1          2          3          4          5
     1  C    0.000000
     2  H    1.107243   0.000000
     3  H    1.107243   1.808119   0.000000
     4  H    1.107243   1.808119   1.808119   0.000000
     5  H    1.107243   1.808119   1.808119   1.808119   0.000000
     6  C    4.310777   4.412795   3.375799   5.164091   4.658168
     7  H    5.218721   5.355599   4.308470   6.113592   5.405809
     8  H    4.136096   3.966436   3.395211   5.072697   4.510076
     9  H    3.542982   3.878724   2.563992   4.368773   3.796064
    10  H    4.726529   4.830674   3.718008   5.420411   5.265397
                    6          7          8          9         10
     6  C    0.000000
     7  H    1.107242   0.000000
     8  H    1.107243   1.808119   0.000000
     9  H    1.107243   1.808119   1.808119   0.000000
    10  H    1.107243   1.808119   1.808119   1.808119   0.000000
 Symmetry turned off by external request.
 Rotational constants (GHZ):     76.6916052      3.2491279      3.2491279
   276 basis functions,   360 primitive gaussians,   310 cartesian basis functions
     5 alpha electrons        5 beta electrons
       nuclear repulsion energy        13.2261669634 Hartrees.
 IMHF & INEx in M05                  614413                  385587
 NAtoms=   10 NActive=   10 NUniq=   10 SFac= 1.00D+00 NAtFMM=   60 NAOKFM=F Big=F
 ExpMin= 2.53D-02 ExpMax= 8.24D+03 ExpMxC= 2.81D+02 IAcc=3 IRadAn=         5 AccDes= 0.00D+00
 Harris functional with IExCor= 1009 and IRadAn=       5 diagonalized for initial guess.
 HarFok:  IExCor= 1009 AccDes= 0.00D+00 IRadAn=         5 IDoV= 1 UseB2=F ITyADJ=14
 ICtDFT=  3500011 ScaDFX=  1.000000  1.000000  1.000000  1.000000
 FoFCou: FMM=F IPFlag=           0 FMFlag=      100000 FMFlg1=           0
         NFxFlg=           0 DoJE=T BraDBF=F KetDBF=T FulRan=T
         wScrn=  0.000000 ICntrl=     500 IOpCl=  0 I1Cent=   200000004 NGrid=           0
         NMat0=    1 NMatS0=      1 NMatT0=    0 NMatD0=    1 NMtDS0=    0 NMtDT0=    0
 Symmetry not used in FoFCou.
 SCF Done:  E(RM05) =  -40.9122282641     A.U. after    7 cycles
            NFock=  7  Conv=0.37D-08     -V/T= 2.0127

 **********************************************************************

            Population analysis using the SCF density.

 **********************************************************************

 Alpha  occ. eigenvalues --  -10.74527  -0.82767  -0.48752  -0.48751  -0.48750
 Alpha virt. eigenvalues --   -0.00118   0.02317   0.02782   0.02888   0.04446
 Alpha virt. eigenvalues --    0.05014   0.05202   0.07291   0.08052   0.08879
 Alpha virt. eigenvalues --    0.09680   0.10415   0.11197   0.11707   0.12218
 Alpha virt. eigenvalues --    0.12405   0.15146   0.15401   0.16069   0.18309
 Alpha virt. eigenvalues --    0.19346   0.22082   0.22866   0.24616   0.25212
 Alpha virt. eigenvalues --    0.25920   0.26883   0.27797   0.28218   0.28852
 Alpha virt. eigenvalues --    0.29085   0.29184   0.30133   0.30647   0.31185
 Alpha virt. eigenvalues --    0.32111   0.33281   0.33736   0.34507   0.34933
 Alpha virt. eigenvalues --    0.36017   0.36497   0.37208   0.38440   0.38754
 Alpha virt. eigenvalues --    0.39582   0.41788   0.42110   0.43117   0.45302
 Alpha virt. eigenvalues --    0.45508   0.46881   0.48496   0.51359   0.53017
 Alpha virt. eigenvalues --    0.54445   0.56118   0.56964   0.58191   0.59715
 Alpha virt. eigenvalues --    0.60441   0.64799   0.65712   0.66322   0.67409
 Alpha virt. eigenvalues --    0.70798   0.71882   0.72724   0.77365   0.78544
 Alpha virt. eigenvalues --    0.80027   0.80439   0.83978   0.84664   0.86027
 Alpha virt. eigenvalues --    0.86764   0.88393   0.90354   0.90404   0.92377
 Alpha virt. eigenvalues --    0.93468   0.93828   0.95227   0.95605   0.97258
 Alpha virt. eigenvalues --    0.98273   0.99034   0.99386   0.99567   1.01078
 Alpha virt. eigenvalues --    1.01702   1.03005   1.04103   1.04794   1.05656
 Alpha virt. eigenvalues --    1.06002   1.06709   1.07575   1.07986   1.09632
 Alpha virt. eigenvalues --    1.10610   1.11455   1.13115   1.14096   1.15920
 Alpha virt. eigenvalues --    1.17790   1.18040   1.18987   1.20462   1.21774
 Alpha virt. eigenvalues --    1.23769   1.24273   1.26739   1.29307   1.33952
 Alpha virt. eigenvalues --    1.36092   1.37317   1.37849   1.38772   1.41584
 Alpha virt. eigenvalues --    1.44054   1.45193   1.45795   1.46719   1.47445
 Alpha virt. eigenvalues --    1.47793   1.48586   1.50212   1.56196   1.59436
 Alpha virt. eigenvalues --    1.61338   1.61936   1.67491   1.68382   1.69131
 Alpha virt. eigenvalues --    1.71507   1.75369   1.77082   1.78121   1.81238
 Alpha virt. eigenvalues --    1.81997   1.83494   1.87072   1.90713   1.92704
 Alpha virt. eigenvalues --    1.96284   1.99599   2.00901   2.01231   2.01712
 Alpha virt. eigenvalues --    2.03292   2.04710   2.05989   2.07649   2.10633
 Alpha virt. eigenvalues --    2.20939   2.26264   2.29778   2.36014   2.42660
 Alpha virt. eigenvalues --    2.46726   2.52045   2.67021   2.68271   2.69638
 Alpha virt. eigenvalues --    2.71111   2.80739   2.87988   2.89084   2.92155
 Alpha virt. eigenvalues --    3.19376   3.20346   3.21799   3.23528   3.25349
 Alpha virt. eigenvalues --    3.27851   3.28758   3.31724   3.57733   3.59166
 Alpha virt. eigenvalues --    3.63477   3.65700   3.71359   3.71518   3.71710
 Alpha virt. eigenvalues --    3.74568   3.75389   3.77118   3.81755   3.82491
 Alpha virt. eigenvalues --    3.83890   3.98257   3.99734   4.02007   4.02506
 Alpha virt. eigenvalues --    4.03190   4.07167   4.16525   4.18571   4.19149
 Alpha virt. eigenvalues --    4.20794   4.23365   4.32971   4.33612   4.34630
 Alpha virt. eigenvalues --    4.35864   4.36470   4.37220   4.40570   4.41267
 Alpha virt. eigenvalues --    4.44483   4.47126   4.48680   4.50380   4.50658
 Alpha virt. eigenvalues --    4.50762   4.53182   4.56070   4.58945   4.61140
 Alpha virt. eigenvalues --    4.62256   4.74239   4.77745   4.78605   4.80006
 Alpha virt. eigenvalues --    4.84298   4.91447   4.92272   4.92511   5.13286
 Alpha virt. eigenvalues --    5.14164   5.14324   5.15170   5.15861   5.18747
 Alpha virt. eigenvalues --    5.22523   5.28530   5.29593   5.30637   5.32340
 Alpha virt. eigenvalues --    5.32793   5.40488   5.42968   5.46688   5.47224
 Alpha virt. eigenvalues --    5.50417   5.51130   5.57698   5.58307   5.61998
 Alpha virt. eigenvalues --    6.03809   6.05851   6.08438   6.12887   6.13101
 Alpha virt. eigenvalues --    6.14341   6.22864   6.23134   6.79320   6.79880
 Alpha virt. eigenvalues --    6.82951   6.95338   7.63306   7.64752   7.66551
 Alpha virt. eigenvalues --    8.01506   8.03897   8.07619  10.26361  16.73198
 Alpha virt. eigenvalues --   52.19131
          Condensed to atoms (all electrons):
 Mulliken charges:
               1
     1  C   -1.878709
     2  H    0.427780
     3  H    0.603536
     4  H    0.412396
     5  H    0.433400
     6  C    0.005707
     7  H    0.000475
     8  H    0.001395
     9  H   -0.005803
    10  H   -0.000176
 Sum of Mulliken charges =  -0.00000
 Mulliken charges with hydrogens summed into heavy atoms:
               1
     1  C   -0.001598
     6  C    0.001598
 Electronic spatial extent (au):  <R**2>=             36.5428
 Charge=             -0.0000 electrons
 Dipole moment (field-independent basis, Debye):
    X=             -0.0001    Y=              0.0001    Z=              0.0002  Tot=              0.0002

 Test job not archived.
 1\1\GINC-CHIMERA-NODE60\SP\RM05\Gen\C2H8\CONNORNM\05-Dec-2018\0\\#T M0
 5/Gen test Massage Symmetry=None SCF=(tight,maxcyc=60)\\M05 opt\\0,1\C
 ,0,0.,0.,0.\H,0,1.10655631,0.,0.03897547\H,0,-0.40367905,0.33298043,0.
 97578339\H,0,-0.34128789,0.69034524,-0.79557023\H,0,-0.36158938,-1.023
 32567,-0.21918863\C,0,0.,0.,4.31077708\H,0,-0.28221916,-0.63592217,5.1
 7213722\H,0,1.0343159,-0.24081852,3.99743537\H,0,-0.69414125,-0.189292
 09,3.46915817\H,0,-0.05795549,1.06603278,4.60437755\\Version=AS64L-G09
 RevD.01\HF=-40.9122283\RMSD=3.685e-09\Dipole=-0.0000346,0.0000499,0.00
 00725\Quadrupole=0.0000129,0.0003626,-0.0003755,-0.000702,-0.0000831,-
 0.0000158\PG=Unknown\\@


 LIFE CAN ONLY BE UNDERSTOOD BACKWARD, BUT MUST
 BE LIVED FORWARD. -- KIRKEGAARD
 Job cpu time:       0 days  0 hours 10 minutes 55.1 seconds.
 File lengths (MBytes):  RWF=     41 Int=      0 D2E=      0 Chk=      4 Scr=      1
 Normal termination of Gaussian 09 at Wed Dec  5 21:54:30 2018.
