 Entering Gaussian System, Link 0=/data/szalewicgrp/connornm/opt/Gaussian/g09-M05-par/g09/g09
 AtFile(1): aug-cc-pVTZ.gbs
 Initial command:
 /data/szalewicgrp/connornm/opt/Gaussian/g09-M05-par/g09/l1.exe "/scratch/local/Gau-17884.inp" -scrdir="/scratch/local/"
 Entering Link 1 = /data/szalewicgrp/connornm/opt/Gaussian/g09-M05-par/g09/l1.exe PID=     17885.
  
 Copyright (c) 1988,1990,1992,1993,1995,1998,2003,2009,2013,
            Gaussian, Inc.  All Rights Reserved.
  
 This is part of the Gaussian(R) 09 program.  It is based on
 the Gaussian(R) 03 system (copyright 2003, Gaussian, Inc.),
 the Gaussian(R) 98 system (copyright 1998, Gaussian, Inc.),
 the Gaussian(R) 94 system (copyright 1995, Gaussian, Inc.),
 the Gaussian 92(TM) system (copyright 1992, Gaussian, Inc.),
 the Gaussian 90(TM) system (copyright 1990, Gaussian, Inc.),
 the Gaussian 88(TM) system (copyright 1988, Gaussian, Inc.),
 the Gaussian 86(TM) system (copyright 1986, Carnegie Mellon
 University), and the Gaussian 82(TM) system (copyright 1983,
 Carnegie Mellon University). Gaussian is a federally registered
 trademark of Gaussian, Inc.
  
 This software contains proprietary and confidential information,
 including trade secrets, belonging to Gaussian, Inc.
  
 This software is provided under written license and may be
 used, copied, transmitted, or stored only in accord with that
 written license.
  
 The following legend is applicable only to US Government
 contracts under FAR:
  
                    RESTRICTED RIGHTS LEGEND
  
 Use, reproduction and disclosure by the US Government is
 subject to restrictions as set forth in subparagraphs (a)
 and (c) of the Commercial Computer Software - Restricted
 Rights clause in FAR 52.227-19.
  
 Gaussian, Inc.
 340 Quinnipiac St., Bldg. 40, Wallingford CT 06492
  
  
 ---------------------------------------------------------------
 Warning -- This program may not be used in any manner that
 competes with the business of Gaussian, Inc. or will provide
 assistance to any competitor of Gaussian, Inc.  The licensee
 of this program is prohibited from giving any competitor of
 Gaussian, Inc. access to this program.  By using this program,
 the user acknowledges that Gaussian, Inc. is engaged in the
 business of creating and licensing software in the field of
 computational chemistry and represents and warrants to the
 licensee that it is not a competitor of Gaussian, Inc. and that
 it will not use this program in any manner prohibited above.
 ---------------------------------------------------------------
  

 Cite this work as:
 Gaussian 09, Revision D.01,
 M. J. Frisch, G. W. Trucks, H. B. Schlegel, G. E. Scuseria, 
 M. A. Robb, J. R. Cheeseman, G. Scalmani, V. Barone, B. Mennucci, 
 G. A. Petersson, H. Nakatsuji, M. Caricato, X. Li, H. P. Hratchian, 
 A. F. Izmaylov, J. Bloino, G. Zheng, J. L. Sonnenberg, M. Hada, 
 M. Ehara, K. Toyota, R. Fukuda, J. Hasegawa, M. Ishida, T. Nakajima, 
 Y. Honda, O. Kitao, H. Nakai, T. Vreven, J. A. Montgomery, Jr., 
 J. E. Peralta, F. Ogliaro, M. Bearpark, J. J. Heyd, E. Brothers, 
 K. N. Kudin, V. N. Staroverov, T. Keith, R. Kobayashi, J. Normand, 
 K. Raghavachari, A. Rendell, J. C. Burant, S. S. Iyengar, J. Tomasi, 
 M. Cossi, N. Rega, J. M. Millam, M. Klene, J. E. Knox, J. B. Cross, 
 V. Bakken, C. Adamo, J. Jaramillo, R. Gomperts, R. E. Stratmann, 
 O. Yazyev, A. J. Austin, R. Cammi, C. Pomelli, J. W. Ochterski, 
 R. L. Martin, K. Morokuma, V. G. Zakrzewski, G. A. Voth, 
 P. Salvador, J. J. Dannenberg, S. Dapprich, A. D. Daniels, 
 O. Farkas, J. B. Foresman, J. V. Ortiz, J. Cioslowski, 
 and D. J. Fox, Gaussian, Inc., Wallingford CT, 2013.
 
 ******************************************
 Gaussian 09:  AS64L-G09RevD.01 24-Apr-2013
                 6-Dec-2018 
 ******************************************
 %Chk=CH400296
 %Mem=2GB
 %NProcShared=16
 Will use up to   16 processors via shared memory.
 -----------------------------------------------------------
 #T M05/Gen test Massage Symmetry=None SCF=(tight,maxcyc=60)
 -----------------------------------------------------------
 -------
 M05 opt
 -------
 Symbolic Z-matrix:
 Charge =  0 Multiplicity = 1
 6                     0.        0.        0. 
 1                     0.21024   0.        1.0871 
 1                     0.73886  -0.64102  -0.51881 
 1                    -1.01959  -0.39303  -0.17874 
 1                     0.07049   1.03405  -0.38955 
 6-Bq                  0.        0.        3.74893 
 1-Bq                 -0.64407   0.79925   4.16409 
 1-Bq                  1.06067   0.229     3.9692 
 1-Bq                 -0.27164  -0.96951   4.20962 
 1-Bq                 -0.14496  -0.05874   2.65279 
 
                    Distance matrix (angstroms):
                    1          2          3          4          5
     1  C    0.000000
     2  H    1.107242   0.000000
     3  H    1.107243   1.808119   0.000000
     4  H    1.107243   1.808119   1.808119   0.000000
     5  H    1.107243   1.808119   1.808119   1.808119   0.000000
     6  C    3.748925   2.670115   4.378399   4.076835   4.266290
     7  H    4.288741   3.291888   5.090820   4.519153   4.615346
     8  H    4.114855   3.013668   4.582875   4.681861   4.541728
     9  H    4.328354   3.304889   4.846345   4.488814   5.028292
    10  H    2.657393   1.606545   3.343533   2.982325   3.239819
                    6          7          8          9         10
     6  C    0.000000
     7  H    1.107243   0.000000
     8  H    1.107243   1.808119   0.000000
     9  H    1.107243   1.808119   1.808119   0.000000
    10  H    1.107243   1.808119   1.808119   1.808119   0.000000
 Symmetry turned off by external request.
 Rotational constants (GHZ):     76.6916050      4.2381483      4.2381483
   276 basis functions,   360 primitive gaussians,   310 cartesian basis functions
     5 alpha electrons        5 beta electrons
       nuclear repulsion energy        13.2261669831 Hartrees.
 IMHF & INEx in M05                  614413                  385587
 NAtoms=   10 NActive=   10 NUniq=   10 SFac= 1.00D+00 NAtFMM=   60 NAOKFM=F Big=F
 ExpMin= 2.53D-02 ExpMax= 8.24D+03 ExpMxC= 2.81D+02 IAcc=3 IRadAn=         5 AccDes= 0.00D+00
 Harris functional with IExCor= 1009 and IRadAn=       5 diagonalized for initial guess.
 HarFok:  IExCor= 1009 AccDes= 0.00D+00 IRadAn=         5 IDoV= 1 UseB2=F ITyADJ=14
 ICtDFT=  3500011 ScaDFX=  1.000000  1.000000  1.000000  1.000000
 FoFCou: FMM=F IPFlag=           0 FMFlag=      100000 FMFlg1=           0
         NFxFlg=           0 DoJE=T BraDBF=F KetDBF=T FulRan=T
         wScrn=  0.000000 ICntrl=     500 IOpCl=  0 I1Cent=   200000004 NGrid=           0
         NMat0=    1 NMatS0=      1 NMatT0=    0 NMatD0=    1 NMtDS0=    0 NMtDT0=    0
 Symmetry not used in FoFCou.
 SCF Done:  E(RM05) =  -40.9122841823     A.U. after    7 cycles
            NFock=  7  Conv=0.59D-08     -V/T= 2.0127

 **********************************************************************

            Population analysis using the SCF density.

 **********************************************************************

 Alpha  occ. eigenvalues --  -10.74526  -0.82768  -0.48754  -0.48751  -0.48751
 Alpha virt. eigenvalues --   -0.00142   0.02328   0.02748   0.02827   0.04790
 Alpha virt. eigenvalues --    0.04953   0.05023   0.07500   0.08356   0.09078
 Alpha virt. eigenvalues --    0.09820   0.10391   0.10652   0.10828   0.12729
 Alpha virt. eigenvalues --    0.13367   0.15004   0.15464   0.18287   0.19228
 Alpha virt. eigenvalues --    0.19635   0.21573   0.22555   0.24539   0.26423
 Alpha virt. eigenvalues --    0.27006   0.27499   0.28287   0.28515   0.28655
 Alpha virt. eigenvalues --    0.29061   0.29265   0.30349   0.31581   0.32261
 Alpha virt. eigenvalues --    0.32861   0.33258   0.34460   0.35230   0.35785
 Alpha virt. eigenvalues --    0.36770   0.37214   0.37605   0.38664   0.39312
 Alpha virt. eigenvalues --    0.42237   0.43003   0.43815   0.44656   0.45823
 Alpha virt. eigenvalues --    0.46542   0.50343   0.51498   0.52309   0.52722
 Alpha virt. eigenvalues --    0.56636   0.57668   0.58310   0.59860   0.62795
 Alpha virt. eigenvalues --    0.63768   0.65017   0.65487   0.69891   0.71033
 Alpha virt. eigenvalues --    0.71766   0.72247   0.75316   0.77927   0.79175
 Alpha virt. eigenvalues --    0.80185   0.80657   0.85396   0.85997   0.87522
 Alpha virt. eigenvalues --    0.88327   0.89138   0.91299   0.92853   0.93175
 Alpha virt. eigenvalues --    0.94392   0.95281   0.96157   0.97552   0.98477
 Alpha virt. eigenvalues --    0.98911   1.00731   1.01522   1.02010   1.02826
 Alpha virt. eigenvalues --    1.03082   1.04796   1.05682   1.05873   1.06742
 Alpha virt. eigenvalues --    1.07358   1.08338   1.09496   1.12005   1.12836
 Alpha virt. eigenvalues --    1.13820   1.14904   1.16332   1.17056   1.18810
 Alpha virt. eigenvalues --    1.22281   1.23632   1.24176   1.25733   1.27465
 Alpha virt. eigenvalues --    1.27843   1.30252   1.33597   1.35240   1.36019
 Alpha virt. eigenvalues --    1.36929   1.37656   1.42536   1.43482   1.45957
 Alpha virt. eigenvalues --    1.46279   1.47051   1.48852   1.49877   1.51698
 Alpha virt. eigenvalues --    1.55917   1.58014   1.60385   1.60677   1.67153
 Alpha virt. eigenvalues --    1.67864   1.67882   1.71000   1.72828   1.74157
 Alpha virt. eigenvalues --    1.76834   1.80078   1.81540   1.83661   1.85288
 Alpha virt. eigenvalues --    1.88911   1.89550   1.97253   1.97769   1.99380
 Alpha virt. eigenvalues --    2.00555   2.01878   2.02099   2.03698   2.04785
 Alpha virt. eigenvalues --    2.06819   2.13401   2.14950   2.18168   2.20621
 Alpha virt. eigenvalues --    2.27900   2.32642   2.34227   2.39751   2.51530
 Alpha virt. eigenvalues --    2.52731   2.61204   2.65651   2.66229   2.76393
 Alpha virt. eigenvalues --    2.83720   2.90966   2.93531   3.00554   3.12888
 Alpha virt. eigenvalues --    3.21159   3.24079   3.25156   3.26746   3.29914
 Alpha virt. eigenvalues --    3.30678   3.40627   3.45687   3.59888   3.60557
 Alpha virt. eigenvalues --    3.68358   3.71868   3.72015   3.74276   3.77847
 Alpha virt. eigenvalues --    3.79061   3.81333   3.83015   3.85153   3.86173
 Alpha virt. eigenvalues --    3.88742   3.96009   3.97205   3.99260   4.06894
 Alpha virt. eigenvalues --    4.10306   4.13518   4.18539   4.18804   4.21590
 Alpha virt. eigenvalues --    4.23853   4.31351   4.33533   4.34600   4.34955
 Alpha virt. eigenvalues --    4.36753   4.37458   4.39261   4.41419   4.42111
 Alpha virt. eigenvalues --    4.43514   4.46325   4.49172   4.52368   4.53987
 Alpha virt. eigenvalues --    4.55848   4.57174   4.59072   4.60615   4.64630
 Alpha virt. eigenvalues --    4.77515   4.78024   4.81481   4.83850   4.86307
 Alpha virt. eigenvalues --    4.88179   4.88764   4.94526   5.01700   5.12705
 Alpha virt. eigenvalues --    5.14043   5.15035   5.16101   5.17332   5.24199
 Alpha virt. eigenvalues --    5.25785   5.27258   5.29455   5.31265   5.33755
 Alpha virt. eigenvalues --    5.37433   5.41535   5.44107   5.47514   5.48179
 Alpha virt. eigenvalues --    5.51216   5.58451   5.60558   5.76680   5.80489
 Alpha virt. eigenvalues --    6.06692   6.07890   6.09442   6.10266   6.10746
 Alpha virt. eigenvalues --    6.18427   6.19685   6.33316   6.77147   6.78504
 Alpha virt. eigenvalues --    6.92857   6.99285   7.63443   7.64847   7.71422
 Alpha virt. eigenvalues --    7.99762   8.03639   8.11479  10.38217  17.31152
 Alpha virt. eigenvalues --   53.52628
          Condensed to atoms (all electrons):
 Mulliken charges:
               1
     1  C   -1.936550
     2  H    0.853194
     3  H    0.417240
     4  H    0.399191
     5  H    0.424332
     6  C   -0.014941
     7  H   -0.003342
     8  H    0.008316
     9  H   -0.003042
    10  H   -0.144399
 Sum of Mulliken charges =   0.00000
 Mulliken charges with hydrogens summed into heavy atoms:
               1
     1  C    0.157407
     6  C   -0.157407
 Electronic spatial extent (au):  <R**2>=             36.5420
 Charge=             -0.0000 electrons
 Dipole moment (field-independent basis, Debye):
    X=              0.0002    Y=              0.0001    Z=              0.0003  Tot=              0.0004

 Test job not archived.
 1\1\GINC-CHIMERA-NODE41\SP\RM05\Gen\C2H8\CONNORNM\06-Dec-2018\0\\#T M0
 5/Gen test Massage Symmetry=None SCF=(tight,maxcyc=60)\\M05 opt\\0,1\C
 ,0,0.,0.,0.\H,0,0.21023639,0.,1.08710009\H,0,0.73886106,-0.64102057,-0
 .51880914\H,0,-1.01958999,-0.3930326,-0.17873889\H,0,0.07049254,1.0340
 5317,-0.38955206\C,0,0.,0.,3.74892533\H,0,-0.64406791,0.79924817,4.164
 09379\H,0,1.06067051,0.22900255,3.96920213\H,0,-0.27164042,-0.96951441
 ,4.20961964\H,0,-0.14496217,-0.05873631,2.65278575\\Version=AS64L-G09R
 evD.01\HF=-40.9122842\RMSD=5.928e-09\Dipole=0.0000646,0.0000225,0.0001
 363\Quadrupole=0.0004224,-0.0004394,0.0000169,0.0000605,0.000642,0.000
 0579\PG=Unknown\\@


 ACTORS ARE SO FORTUNATE.  THEY CAN CHOOSE WHETHER
 THEY WILL APPEAR IN A TRAGEDY OR IN COMEDY,
 WHETHER THEY WILL SUFFER OF MAKE MERRY,
 LAUGH OR SHED TEARS.  BUT IN REAL LIFE IT IS DIFFERENT.
 MOST MEN AND WOMEN ARE FORCED TO PERFORM
 PARTS FOR WHICH THEY HAVE NO QUALIFICATIONS.
 THE WORLD IS A STAGE, BUT THE PLAY IS BADLY CAST.

                                   -- OSCAR WILDE
 Job cpu time:       0 days  0 hours 11 minutes 60.0 seconds.
 File lengths (MBytes):  RWF=     41 Int=      0 D2E=      0 Chk=      4 Scr=      1
 Normal termination of Gaussian 09 at Thu Dec  6 13:20:40 2018.
