 Entering Gaussian System, Link 0=/data/szalewicgrp/connornm/opt/Gaussian/g09-M05-par/g09/g09
 AtFile(1): aug-cc-pVTZ.gbs
 Initial command:
 /data/szalewicgrp/connornm/opt/Gaussian/g09-M05-par/g09/l1.exe "/scratch/local/Gau-5365.inp" -scrdir="/scratch/local/"
 Entering Link 1 = /data/szalewicgrp/connornm/opt/Gaussian/g09-M05-par/g09/l1.exe PID=      5367.
  
 Copyright (c) 1988,1990,1992,1993,1995,1998,2003,2009,2013,
            Gaussian, Inc.  All Rights Reserved.
  
 This is part of the Gaussian(R) 09 program.  It is based on
 the Gaussian(R) 03 system (copyright 2003, Gaussian, Inc.),
 the Gaussian(R) 98 system (copyright 1998, Gaussian, Inc.),
 the Gaussian(R) 94 system (copyright 1995, Gaussian, Inc.),
 the Gaussian 92(TM) system (copyright 1992, Gaussian, Inc.),
 the Gaussian 90(TM) system (copyright 1990, Gaussian, Inc.),
 the Gaussian 88(TM) system (copyright 1988, Gaussian, Inc.),
 the Gaussian 86(TM) system (copyright 1986, Carnegie Mellon
 University), and the Gaussian 82(TM) system (copyright 1983,
 Carnegie Mellon University). Gaussian is a federally registered
 trademark of Gaussian, Inc.
  
 This software contains proprietary and confidential information,
 including trade secrets, belonging to Gaussian, Inc.
  
 This software is provided under written license and may be
 used, copied, transmitted, or stored only in accord with that
 written license.
  
 The following legend is applicable only to US Government
 contracts under FAR:
  
                    RESTRICTED RIGHTS LEGEND
  
 Use, reproduction and disclosure by the US Government is
 subject to restrictions as set forth in subparagraphs (a)
 and (c) of the Commercial Computer Software - Restricted
 Rights clause in FAR 52.227-19.
  
 Gaussian, Inc.
 340 Quinnipiac St., Bldg. 40, Wallingford CT 06492
  
  
 ---------------------------------------------------------------
 Warning -- This program may not be used in any manner that
 competes with the business of Gaussian, Inc. or will provide
 assistance to any competitor of Gaussian, Inc.  The licensee
 of this program is prohibited from giving any competitor of
 Gaussian, Inc. access to this program.  By using this program,
 the user acknowledges that Gaussian, Inc. is engaged in the
 business of creating and licensing software in the field of
 computational chemistry and represents and warrants to the
 licensee that it is not a competitor of Gaussian, Inc. and that
 it will not use this program in any manner prohibited above.
 ---------------------------------------------------------------
  

 Cite this work as:
 Gaussian 09, Revision D.01,
 M. J. Frisch, G. W. Trucks, H. B. Schlegel, G. E. Scuseria, 
 M. A. Robb, J. R. Cheeseman, G. Scalmani, V. Barone, B. Mennucci, 
 G. A. Petersson, H. Nakatsuji, M. Caricato, X. Li, H. P. Hratchian, 
 A. F. Izmaylov, J. Bloino, G. Zheng, J. L. Sonnenberg, M. Hada, 
 M. Ehara, K. Toyota, R. Fukuda, J. Hasegawa, M. Ishida, T. Nakajima, 
 Y. Honda, O. Kitao, H. Nakai, T. Vreven, J. A. Montgomery, Jr., 
 J. E. Peralta, F. Ogliaro, M. Bearpark, J. J. Heyd, E. Brothers, 
 K. N. Kudin, V. N. Staroverov, T. Keith, R. Kobayashi, J. Normand, 
 K. Raghavachari, A. Rendell, J. C. Burant, S. S. Iyengar, J. Tomasi, 
 M. Cossi, N. Rega, J. M. Millam, M. Klene, J. E. Knox, J. B. Cross, 
 V. Bakken, C. Adamo, J. Jaramillo, R. Gomperts, R. E. Stratmann, 
 O. Yazyev, A. J. Austin, R. Cammi, C. Pomelli, J. W. Ochterski, 
 R. L. Martin, K. Morokuma, V. G. Zakrzewski, G. A. Voth, 
 P. Salvador, J. J. Dannenberg, S. Dapprich, A. D. Daniels, 
 O. Farkas, J. B. Foresman, J. V. Ortiz, J. Cioslowski, 
 and D. J. Fox, Gaussian, Inc., Wallingford CT, 2013.
 
 ******************************************
 Gaussian 09:  AS64L-G09RevD.01 24-Apr-2013
                 6-Dec-2018 
 ******************************************
 %Chk=CH400232
 %Mem=2GB
 %NProcShared=16
 Will use up to   16 processors via shared memory.
 -----------------------------------------------------------
 #T M05/Gen test Massage Symmetry=None SCF=(tight,maxcyc=60)
 -----------------------------------------------------------
 -------
 M05 opt
 -------
 Symbolic Z-matrix:
 Charge =  0 Multiplicity = 1
 6                     0.        0.        0. 
 1                     0.66147   0.       -0.88795 
 1                     0.33977  -0.77568   0.71334 
 1                     0.03809   0.99287   0.48861 
 1                    -1.03933  -0.21719  -0.31401 
 6-Bq                  0.        0.        2.92049 
 1-Bq                 -0.71316  -0.13591   3.75651 
 1-Bq                  0.12069  -0.95815   2.37886 
 1-Bq                 -0.38787   0.77023   2.22602 
 1-Bq                  0.98033   0.32383   3.32058 
 
                    Distance matrix (angstroms):
                    1          2          3          4          5
     1  C    0.000000
     2  H    1.107243   0.000000
     3  H    1.107243   1.808119   0.000000
     4  H    1.107243   1.808119   1.808119   0.000000
     5  H    1.107242   1.808119   1.808119   1.808119   0.000000
     6  C    2.920491   3.865453   2.364028   2.627030   3.404316
     7  H    3.826016   4.845512   3.283110   3.538030   4.084369
     8  H    2.567414   3.447105   1.689748   2.717789   3.024276
     9  H    2.387223   3.375071   2.281988   1.802661   2.801985
    10  H    3.477379   4.232993   2.901195   3.058670   4.193086
                    6          7          8          9         10
     6  C    0.000000
     7  H    1.107243   0.000000
     8  H    1.107243   1.808119   0.000000
     9  H    1.107243   1.808119   1.808119   0.000000
    10  H    1.107243   1.808119   1.808119   1.808119   0.000000
 Symmetry turned off by external request.
 Rotational constants (GHZ):     76.6916053      6.7422189      6.7422189
   276 basis functions,   360 primitive gaussians,   310 cartesian basis functions
     5 alpha electrons        5 beta electrons
       nuclear repulsion energy        13.2261669895 Hartrees.
 IMHF & INEx in M05                  614413                  385587
 NAtoms=   10 NActive=   10 NUniq=   10 SFac= 1.00D+00 NAtFMM=   60 NAOKFM=F Big=F
 ExpMin= 2.53D-02 ExpMax= 8.24D+03 ExpMxC= 2.81D+02 IAcc=3 IRadAn=         5 AccDes= 0.00D+00
 Harris functional with IExCor= 1009 and IRadAn=       5 diagonalized for initial guess.
 HarFok:  IExCor= 1009 AccDes= 0.00D+00 IRadAn=         5 IDoV= 1 UseB2=F ITyADJ=14
 ICtDFT=  3500011 ScaDFX=  1.000000  1.000000  1.000000  1.000000
 FoFCou: FMM=F IPFlag=           0 FMFlag=      100000 FMFlg1=           0
         NFxFlg=           0 DoJE=T BraDBF=F KetDBF=T FulRan=T
         wScrn=  0.000000 ICntrl=     500 IOpCl=  0 I1Cent=   200000004 NGrid=           0
         NMat0=    1 NMatS0=      1 NMatT0=    0 NMatD0=    1 NMtDS0=    0 NMtDT0=    0
 Symmetry not used in FoFCou.
 EnCoef did   100 forward-backward iterations
 Restarting incremental Fock formation.
 SCF Done:  E(RM05) =  -47.1003987240     A.U. after   22 cycles
            NFock= 22  Conv=0.54D-08     -V/T= 2.0178

 **********************************************************************

            Population analysis using the SCF density.

 **********************************************************************

 Alpha  occ. eigenvalues --  -11.25543  -0.78114  -0.59313  -0.59312  -0.59308
 Alpha virt. eigenvalues --   -0.27456  -0.22691  -0.22646  -0.22627  -0.18651
 Alpha virt. eigenvalues --   -0.18482  -0.18399  -0.17023  -0.16468  -0.08355
 Alpha virt. eigenvalues --   -0.07032  -0.06763  -0.06113  -0.05078  -0.04774
 Alpha virt. eigenvalues --   -0.03872  -0.03187  -0.00620  -0.00557  -0.00537
 Alpha virt. eigenvalues --    0.00940   0.01961   0.03345   0.04131   0.05033
 Alpha virt. eigenvalues --    0.05619   0.06081   0.06588   0.06684   0.06949
 Alpha virt. eigenvalues --    0.08404   0.09052   0.09320   0.09953   0.10061
 Alpha virt. eigenvalues --    0.10666   0.11009   0.11383   0.12030   0.13199
 Alpha virt. eigenvalues --    0.13808   0.15527   0.17079   0.19354   0.20895
 Alpha virt. eigenvalues --    0.22341   0.23115   0.23553   0.23914   0.25723
 Alpha virt. eigenvalues --    0.26832   0.27538   0.28765   0.29606   0.30390
 Alpha virt. eigenvalues --    0.32126   0.33175   0.33490   0.33872   0.34399
 Alpha virt. eigenvalues --    0.35074   0.36122   0.36193   0.37125   0.38097
 Alpha virt. eigenvalues --    0.38915   0.39389   0.40345   0.41244   0.42119
 Alpha virt. eigenvalues --    0.43485   0.44092   0.45797   0.47183   0.47752
 Alpha virt. eigenvalues --    0.47954   0.49500   0.51889   0.52899   0.53173
 Alpha virt. eigenvalues --    0.54400   0.55762   0.56424   0.57999   0.58968
 Alpha virt. eigenvalues --    0.60551   0.61642   0.62681   0.63480   0.64157
 Alpha virt. eigenvalues --    0.64497   0.67390   0.69782   0.70894   0.72910
 Alpha virt. eigenvalues --    0.74000   0.77199   0.77621   0.78946   0.79619
 Alpha virt. eigenvalues --    0.82316   0.82626   0.84076   0.84945   0.85971
 Alpha virt. eigenvalues --    0.86127   0.87398   0.88709   0.90311   0.92090
 Alpha virt. eigenvalues --    0.93349   0.93637   0.94296   0.95766   0.96961
 Alpha virt. eigenvalues --    0.97239   0.99943   1.00199   1.01124   1.02139
 Alpha virt. eigenvalues --    1.03645   1.04434   1.05960   1.07080   1.08934
 Alpha virt. eigenvalues --    1.09557   1.10729   1.11996   1.14330   1.15174
 Alpha virt. eigenvalues --    1.16907   1.19791   1.20464   1.21521   1.22709
 Alpha virt. eigenvalues --    1.24754   1.24847   1.25505   1.29929   1.30605
 Alpha virt. eigenvalues --    1.32999   1.33089   1.35533   1.41735   1.42385
 Alpha virt. eigenvalues --    1.44813   1.47268   1.48969   1.52217   1.54704
 Alpha virt. eigenvalues --    1.56592   1.58625   1.59559   1.65076   1.66666
 Alpha virt. eigenvalues --    1.67151   1.69135   1.70696   1.74251   1.78325
 Alpha virt. eigenvalues --    1.85916   1.92246   1.97266   1.97617   2.00538
 Alpha virt. eigenvalues --    2.03433   2.04715   2.06589   2.08013   2.10981
 Alpha virt. eigenvalues --    2.11772   2.14420   2.15967   2.16723   2.19328
 Alpha virt. eigenvalues --    2.20885   2.23936   2.25958   2.27204   2.27563
 Alpha virt. eigenvalues --    2.28869   2.30068   2.31211   2.33032   2.34961
 Alpha virt. eigenvalues --    2.36114   2.37239   2.39300   2.42930   2.49035
 Alpha virt. eigenvalues --    2.62715   2.63317   2.64790   2.66603   2.68426
 Alpha virt. eigenvalues --    2.68647   2.69902   2.71551   2.73028   2.74349
 Alpha virt. eigenvalues --    2.77728   2.80801   2.94119   2.95557   2.98157
 Alpha virt. eigenvalues --    3.13593   3.20760   3.21426   3.23341   3.23866
 Alpha virt. eigenvalues --    3.25391   3.26225   3.28633   3.29136   3.30484
 Alpha virt. eigenvalues --    3.31853   3.34179   3.42135   3.45266   3.50777
 Alpha virt. eigenvalues --    3.61688   3.67298   3.75889   3.76759   3.77953
 Alpha virt. eigenvalues --    3.79284   3.81082   3.86760   3.88872   3.89517
 Alpha virt. eigenvalues --    3.90352   3.96322   3.99419   4.07136   4.10678
 Alpha virt. eigenvalues --    4.11419   4.21174   4.22758   4.26439   4.35691
 Alpha virt. eigenvalues --    4.41239   4.49126   4.53220   4.61911   4.64698
 Alpha virt. eigenvalues --    4.71179   4.77261   4.80228   4.92668   5.04758
 Alpha virt. eigenvalues --    5.10777   5.12620   5.23618   5.50520   5.52575
 Alpha virt. eigenvalues --    5.56815   5.71863   5.76384   5.96162   6.10483
 Alpha virt. eigenvalues --    6.37386   6.55128   6.68148   7.05682   7.30512
 Alpha virt. eigenvalues --    7.48451   7.55898   7.60591   9.69571  13.01144
 Alpha virt. eigenvalues --   51.99003
          Condensed to atoms (all electrons):
 Mulliken charges:
               1
     1  C   -0.766601
     2  H   -0.817756
     3  H    1.095563
     4  H    0.654304
     5  H    0.073966
     6  C    0.249906
     7  H    0.000421
     8  H   -0.324963
     9  H   -0.179861
    10  H    0.015020
 Sum of Mulliken charges =   0.00000
 Mulliken charges with hydrogens summed into heavy atoms:
               1
     1  C    0.239476
     6  C   -0.239476
 Electronic spatial extent (au):  <R**2>=             40.0842
 Charge=              0.0000 electrons
 Dipole moment (field-independent basis, Debye):
    X=              0.0038    Y=             -0.0018    Z=             -0.0019  Tot=              0.0046

 Test job not archived.
 1\1\GINC-CHIMERA-NODE27\SP\RM05\Gen\C2H8\CONNORNM\06-Dec-2018\0\\#T M0
 5/Gen test Massage Symmetry=None SCF=(tight,maxcyc=60)\\M05 opt\\0,1\C
 ,0,0.,0.,0.\H,0,0.66146646,0.,-0.88794599\H,0,0.33977253,-0.7756818,0.
 71334307\H,0,0.03809422,0.99287171,0.48861084\H,0,-1.03933321,-0.21718
 991,-0.31400792\C,0,0.,0.,2.92049077\H,0,-0.71315827,-0.13590834,3.756
 50522\H,0,0.12069468,-0.9581535,2.37886302\H,0,-0.38786596,0.77022712,
 2.22601533\H,0,0.98032955,0.32383472,3.32057953\\Version=AS64L-G09RevD
 .01\HF=-47.1003987\RMSD=5.412e-09\Dipole=0.0014807,-0.0007152,-0.00075
 \Quadrupole=0.001916,0.0074383,-0.0093543,-0.0013656,-0.000198,-0.0031
 52\PG=Unknown\\@


 Luck is a matter of preparation meeting opportunity.
                                    -- Oprah Winfrey
 Job cpu time:       0 days  0 hours 38 minutes 54.2 seconds.
 File lengths (MBytes):  RWF=     41 Int=      0 D2E=      0 Chk=      4 Scr=      1
 Normal termination of Gaussian 09 at Thu Dec  6 13:18:23 2018.
