 Entering Gaussian System, Link 0=/data/szalewicgrp/connornm/opt/Gaussian/g09-M05-par/g09/g09
 AtFile(1): aug-cc-pVTZ.gbs
 Initial command:
 /data/szalewicgrp/connornm/opt/Gaussian/g09-M05-par/g09/l1.exe "/scratch/local/Gau-9388.inp" -scrdir="/scratch/local/"
 Entering Link 1 = /data/szalewicgrp/connornm/opt/Gaussian/g09-M05-par/g09/l1.exe PID=      9389.
  
 Copyright (c) 1988,1990,1992,1993,1995,1998,2003,2009,2013,
            Gaussian, Inc.  All Rights Reserved.
  
 This is part of the Gaussian(R) 09 program.  It is based on
 the Gaussian(R) 03 system (copyright 2003, Gaussian, Inc.),
 the Gaussian(R) 98 system (copyright 1998, Gaussian, Inc.),
 the Gaussian(R) 94 system (copyright 1995, Gaussian, Inc.),
 the Gaussian 92(TM) system (copyright 1992, Gaussian, Inc.),
 the Gaussian 90(TM) system (copyright 1990, Gaussian, Inc.),
 the Gaussian 88(TM) system (copyright 1988, Gaussian, Inc.),
 the Gaussian 86(TM) system (copyright 1986, Carnegie Mellon
 University), and the Gaussian 82(TM) system (copyright 1983,
 Carnegie Mellon University). Gaussian is a federally registered
 trademark of Gaussian, Inc.
  
 This software contains proprietary and confidential information,
 including trade secrets, belonging to Gaussian, Inc.
  
 This software is provided under written license and may be
 used, copied, transmitted, or stored only in accord with that
 written license.
  
 The following legend is applicable only to US Government
 contracts under FAR:
  
                    RESTRICTED RIGHTS LEGEND
  
 Use, reproduction and disclosure by the US Government is
 subject to restrictions as set forth in subparagraphs (a)
 and (c) of the Commercial Computer Software - Restricted
 Rights clause in FAR 52.227-19.
  
 Gaussian, Inc.
 340 Quinnipiac St., Bldg. 40, Wallingford CT 06492
  
  
 ---------------------------------------------------------------
 Warning -- This program may not be used in any manner that
 competes with the business of Gaussian, Inc. or will provide
 assistance to any competitor of Gaussian, Inc.  The licensee
 of this program is prohibited from giving any competitor of
 Gaussian, Inc. access to this program.  By using this program,
 the user acknowledges that Gaussian, Inc. is engaged in the
 business of creating and licensing software in the field of
 computational chemistry and represents and warrants to the
 licensee that it is not a competitor of Gaussian, Inc. and that
 it will not use this program in any manner prohibited above.
 ---------------------------------------------------------------
  

 Cite this work as:
 Gaussian 09, Revision D.01,
 M. J. Frisch, G. W. Trucks, H. B. Schlegel, G. E. Scuseria, 
 M. A. Robb, J. R. Cheeseman, G. Scalmani, V. Barone, B. Mennucci, 
 G. A. Petersson, H. Nakatsuji, M. Caricato, X. Li, H. P. Hratchian, 
 A. F. Izmaylov, J. Bloino, G. Zheng, J. L. Sonnenberg, M. Hada, 
 M. Ehara, K. Toyota, R. Fukuda, J. Hasegawa, M. Ishida, T. Nakajima, 
 Y. Honda, O. Kitao, H. Nakai, T. Vreven, J. A. Montgomery, Jr., 
 J. E. Peralta, F. Ogliaro, M. Bearpark, J. J. Heyd, E. Brothers, 
 K. N. Kudin, V. N. Staroverov, T. Keith, R. Kobayashi, J. Normand, 
 K. Raghavachari, A. Rendell, J. C. Burant, S. S. Iyengar, J. Tomasi, 
 M. Cossi, N. Rega, J. M. Millam, M. Klene, J. E. Knox, J. B. Cross, 
 V. Bakken, C. Adamo, J. Jaramillo, R. Gomperts, R. E. Stratmann, 
 O. Yazyev, A. J. Austin, R. Cammi, C. Pomelli, J. W. Ochterski, 
 R. L. Martin, K. Morokuma, V. G. Zakrzewski, G. A. Voth, 
 P. Salvador, J. J. Dannenberg, S. Dapprich, A. D. Daniels, 
 O. Farkas, J. B. Foresman, J. V. Ortiz, J. Cioslowski, 
 and D. J. Fox, Gaussian, Inc., Wallingford CT, 2013.
 
 ******************************************
 Gaussian 09:  AS64L-G09RevD.01 24-Apr-2013
                 6-Dec-2018 
 ******************************************
 %Chk=CH400020
 %Mem=2GB
 %NProcShared=16
 Will use up to   16 processors via shared memory.
 -----------------------------------------------------------
 #T M05/Gen test Massage Symmetry=None SCF=(tight,maxcyc=60)
 -----------------------------------------------------------
 -------
 M05 opt
 -------
 Symbolic Z-matrix:
 Charge =  0 Multiplicity = 1
 6                     0.        0.        0. 
 1                     1.02504   0.       -0.41867 
 1                    -0.59885   0.79196  -0.49008 
 1                    -0.47243  -0.98498  -0.18056 
 1                     0.04624   0.19303   1.08931 
 6-Bq                  0.        0.        4.4896 
 1-Bq                 -0.95955   0.07822   5.03652 
 1-Bq                  0.48389  -0.96656   4.72959 
 1-Bq                 -0.19032   0.05706   3.40033 
 1-Bq                  0.66599   0.83128   4.79195 
 
                    Distance matrix (angstroms):
                    1          2          3          4          5
     1  C    0.000000
     2  H    1.107242   0.000000
     3  H    1.107243   1.808119   0.000000
     4  H    1.107242   1.808119   1.808119   0.000000
     5  H    1.107242   1.808119   1.808119   1.808119   0.000000
     6  C    4.489599   5.014160   5.077693   4.796225   3.406081
     7  H    5.127711   5.805500   5.584157   5.346556   4.074962
     8  H    4.851538   5.266087   5.613343   5.002447   3.845499
     9  H    3.406129   4.008129   3.980228   3.740082   2.327075
    10  H    4.908908   5.288716   5.431498   5.414859   3.808023
                    6          7          8          9         10
     6  C    0.000000
     7  H    1.107243   0.000000
     8  H    1.107243   1.808119   0.000000
     9  H    1.107243   1.808119   1.808119   0.000000
    10  H    1.107242   1.808119   1.808119   1.808119   0.000000
 Symmetry turned off by external request.
 Rotational constants (GHZ):     76.6916057      3.0053965      3.0053965
   276 basis functions,   360 primitive gaussians,   310 cartesian basis functions
     5 alpha electrons        5 beta electrons
       nuclear repulsion energy        13.2261670271 Hartrees.
 IMHF & INEx in M05                  614413                  385587
 NAtoms=   10 NActive=   10 NUniq=   10 SFac= 1.00D+00 NAtFMM=   60 NAOKFM=F Big=F
 ExpMin= 2.53D-02 ExpMax= 8.24D+03 ExpMxC= 2.81D+02 IAcc=3 IRadAn=         5 AccDes= 0.00D+00
 Harris functional with IExCor= 1009 and IRadAn=       5 diagonalized for initial guess.
 HarFok:  IExCor= 1009 AccDes= 0.00D+00 IRadAn=         5 IDoV= 1 UseB2=F ITyADJ=14
 ICtDFT=  3500011 ScaDFX=  1.000000  1.000000  1.000000  1.000000
 FoFCou: FMM=F IPFlag=           0 FMFlag=      100000 FMFlg1=           0
         NFxFlg=           0 DoJE=T BraDBF=F KetDBF=T FulRan=T
         wScrn=  0.000000 ICntrl=     500 IOpCl=  0 I1Cent=   200000004 NGrid=           0
         NMat0=    1 NMatS0=      1 NMatT0=    0 NMatD0=    1 NMtDS0=    0 NMtDT0=    0
 Symmetry not used in FoFCou.
 SCF Done:  E(RM05) =  -40.9122499485     A.U. after    7 cycles
            NFock=  7  Conv=0.52D-08     -V/T= 2.0127

 **********************************************************************

            Population analysis using the SCF density.

 **********************************************************************

 Alpha  occ. eigenvalues --  -10.74525  -0.82768  -0.48753  -0.48750  -0.48750
 Alpha virt. eigenvalues --   -0.00131   0.02199   0.02811   0.02853   0.04696
 Alpha virt. eigenvalues --    0.04783   0.05021   0.07249   0.08425   0.09177
 Alpha virt. eigenvalues --    0.09502   0.10435   0.10673   0.11196   0.12573
 Alpha virt. eigenvalues --    0.13387   0.15198   0.15514   0.17071   0.18377
 Alpha virt. eigenvalues --    0.19154   0.22126   0.22606   0.24789   0.25846
 Alpha virt. eigenvalues --    0.26082   0.27068   0.27719   0.28114   0.29085
 Alpha virt. eigenvalues --    0.29141   0.29481   0.29750   0.30804   0.31345
 Alpha virt. eigenvalues --    0.31642   0.32970   0.33904   0.34405   0.35204
 Alpha virt. eigenvalues --    0.35317   0.36049   0.36565   0.37703   0.39358
 Alpha virt. eigenvalues --    0.40818   0.41399   0.42211   0.43608   0.45422
 Alpha virt. eigenvalues --    0.45630   0.46982   0.48899   0.50262   0.54598
 Alpha virt. eigenvalues --    0.55310   0.56408   0.57861   0.59503   0.62633
 Alpha virt. eigenvalues --    0.63990   0.65364   0.65877   0.68032   0.71232
 Alpha virt. eigenvalues --    0.71466   0.71941   0.72753   0.77580   0.77784
 Alpha virt. eigenvalues --    0.79033   0.79995   0.84260   0.85275   0.86148
 Alpha virt. eigenvalues --    0.86380   0.87804   0.90347   0.90939   0.92702
 Alpha virt. eigenvalues --    0.93710   0.94224   0.95910   0.96319   0.96566
 Alpha virt. eigenvalues --    0.97050   0.99048   1.00026   1.01126   1.01667
 Alpha virt. eigenvalues --    1.01859   1.02601   1.02896   1.04500   1.05392
 Alpha virt. eigenvalues --    1.06273   1.07348   1.07900   1.09292   1.09728
 Alpha virt. eigenvalues --    1.10377   1.12310   1.12644   1.13286   1.16615
 Alpha virt. eigenvalues --    1.17489   1.18181   1.20575   1.21323   1.23119
 Alpha virt. eigenvalues --    1.24656   1.25328   1.26025   1.28055   1.31488
 Alpha virt. eigenvalues --    1.36523   1.37354   1.37769   1.38990   1.43247
 Alpha virt. eigenvalues --    1.45053   1.45315   1.45993   1.48077   1.48638
 Alpha virt. eigenvalues --    1.50914   1.52897   1.54645   1.57470   1.58760
 Alpha virt. eigenvalues --    1.61052   1.67071   1.68298   1.69136   1.71112
 Alpha virt. eigenvalues --    1.72660   1.75132   1.77567   1.77693   1.82224
 Alpha virt. eigenvalues --    1.84644   1.85649   1.87953   1.88342   1.94575
 Alpha virt. eigenvalues --    1.97470   1.99102   2.01898   2.02730   2.03374
 Alpha virt. eigenvalues --    2.03861   2.06143   2.06410   2.13540   2.17721
 Alpha virt. eigenvalues --    2.19571   2.27454   2.28324   2.35939   2.47284
 Alpha virt. eigenvalues --    2.51568   2.60109   2.66992   2.67851   2.75437
 Alpha virt. eigenvalues --    2.79406   2.85220   2.89551   2.90179   3.05642
 Alpha virt. eigenvalues --    3.18434   3.20224   3.21160   3.25026   3.26135
 Alpha virt. eigenvalues --    3.26227   3.30282   3.37490   3.58675   3.59522
 Alpha virt. eigenvalues --    3.69619   3.71473   3.71529   3.73215   3.74905
 Alpha virt. eigenvalues --    3.75531   3.79115   3.80393   3.82057   3.82819
 Alpha virt. eigenvalues --    3.84505   3.98478   3.99093   3.99395   4.03835
 Alpha virt. eigenvalues --    4.09782   4.14187   4.16194   4.17294   4.18471
 Alpha virt. eigenvalues --    4.19760   4.23027   4.33290   4.35229   4.35483
 Alpha virt. eigenvalues --    4.35708   4.35946   4.38565   4.39156   4.40557
 Alpha virt. eigenvalues --    4.41240   4.45754   4.49613   4.50065   4.51364
 Alpha virt. eigenvalues --    4.52721   4.53047   4.55697   4.58896   4.60619
 Alpha virt. eigenvalues --    4.69080   4.77839   4.78358   4.79434   4.81774
 Alpha virt. eigenvalues --    4.90209   4.91509   4.91846   5.01171   5.13900
 Alpha virt. eigenvalues --    5.14097   5.14954   5.15726   5.15832   5.17285
 Alpha virt. eigenvalues --    5.23434   5.28977   5.29571   5.30482   5.32600
 Alpha virt. eigenvalues --    5.32900   5.43103   5.43735   5.46746   5.47822
 Alpha virt. eigenvalues --    5.52559   5.57384   5.58575   5.60714   5.74576
 Alpha virt. eigenvalues --    6.04860   6.05400   6.09682   6.12696   6.13354
 Alpha virt. eigenvalues --    6.14138   6.22826   6.22885   6.79161   6.80226
 Alpha virt. eigenvalues --    6.94416   6.98734   7.63799   7.65480   7.67354
 Alpha virt. eigenvalues --    8.00551   8.04060   8.10025  10.36069  17.05102
 Alpha virt. eigenvalues --   53.10304
          Condensed to atoms (all electrons):
 Mulliken charges:
               1
     1  C   -1.899609
     2  H    0.408551
     3  H    0.409466
     4  H    0.408407
     5  H    0.689702
     6  C    0.004833
     7  H    0.000658
     8  H    0.001289
     9  H   -0.023636
    10  H    0.000337
 Sum of Mulliken charges =   0.00000
 Mulliken charges with hydrogens summed into heavy atoms:
               1
     1  C    0.016518
     6  C   -0.016518
 Electronic spatial extent (au):  <R**2>=             36.5428
 Charge=              0.0000 electrons
 Dipole moment (field-independent basis, Debye):
    X=              0.0001    Y=              0.0001    Z=              0.0004  Tot=              0.0004

 Test job not archived.
 1\1\GINC-CHIMERA-NODE54\SP\RM05\Gen\C2H8\CONNORNM\06-Dec-2018\0\\#T M0
 5/Gen test Massage Symmetry=None SCF=(tight,maxcyc=60)\\M05 opt\\0,1\C
 ,0,0.,0.,0.\H,0,1.02503758,0.,-0.41866921\H,0,-0.5988479,0.79195514,-0
 .49007572\H,0,-0.47242886,-0.98498458,-0.18056106\H,0,0.04623917,0.193
 02944,1.08930598\C,0,0.,0.,4.48959875\H,0,-0.95955291,0.07822063,5.036
 52261\H,0,0.48388623,-0.96656282,4.72959122\H,0,-0.19032019,0.05706009
 ,3.40032912\H,0,0.66598686,0.8312821,4.79195206\\Version=AS64L-G09RevD
 .01\HF=-40.9122499\RMSD=5.174e-09\Dipole=0.0000458,0.000021,0.0001387\
 Quadrupole=-0.0000503,-0.0000672,0.0001175,-0.0000222,0.0002945,0.0003
 014\PG=Unknown\\@


 TELEVISION IS CALLED A MEDIUM BECAUSE IT ISN'T
 RARE, AND IT ISN'T WELL DONE.
 Job cpu time:       0 days  0 hours 10 minutes 38.9 seconds.
 File lengths (MBytes):  RWF=     41 Int=      0 D2E=      0 Chk=      4 Scr=      1
 Normal termination of Gaussian 09 at Thu Dec  6 13:20:35 2018.
