 Entering Gaussian System, Link 0=/data/szalewicgrp/connornm/opt/Gaussian/g09-M05-par/g09/g09
 AtFile(1): aug-cc-pVTZ.gbs
 Initial command:
 /data/szalewicgrp/connornm/opt/Gaussian/g09-M05-par/g09/l1.exe "/scratch/local/Gau-46058.inp" -scrdir="/scratch/local/"
 Entering Link 1 = /data/szalewicgrp/connornm/opt/Gaussian/g09-M05-par/g09/l1.exe PID=     46059.
  
 Copyright (c) 1988,1990,1992,1993,1995,1998,2003,2009,2013,
            Gaussian, Inc.  All Rights Reserved.
  
 This is part of the Gaussian(R) 09 program.  It is based on
 the Gaussian(R) 03 system (copyright 2003, Gaussian, Inc.),
 the Gaussian(R) 98 system (copyright 1998, Gaussian, Inc.),
 the Gaussian(R) 94 system (copyright 1995, Gaussian, Inc.),
 the Gaussian 92(TM) system (copyright 1992, Gaussian, Inc.),
 the Gaussian 90(TM) system (copyright 1990, Gaussian, Inc.),
 the Gaussian 88(TM) system (copyright 1988, Gaussian, Inc.),
 the Gaussian 86(TM) system (copyright 1986, Carnegie Mellon
 University), and the Gaussian 82(TM) system (copyright 1983,
 Carnegie Mellon University). Gaussian is a federally registered
 trademark of Gaussian, Inc.
  
 This software contains proprietary and confidential information,
 including trade secrets, belonging to Gaussian, Inc.
  
 This software is provided under written license and may be
 used, copied, transmitted, or stored only in accord with that
 written license.
  
 The following legend is applicable only to US Government
 contracts under FAR:
  
                    RESTRICTED RIGHTS LEGEND
  
 Use, reproduction and disclosure by the US Government is
 subject to restrictions as set forth in subparagraphs (a)
 and (c) of the Commercial Computer Software - Restricted
 Rights clause in FAR 52.227-19.
  
 Gaussian, Inc.
 340 Quinnipiac St., Bldg. 40, Wallingford CT 06492
  
  
 ---------------------------------------------------------------
 Warning -- This program may not be used in any manner that
 competes with the business of Gaussian, Inc. or will provide
 assistance to any competitor of Gaussian, Inc.  The licensee
 of this program is prohibited from giving any competitor of
 Gaussian, Inc. access to this program.  By using this program,
 the user acknowledges that Gaussian, Inc. is engaged in the
 business of creating and licensing software in the field of
 computational chemistry and represents and warrants to the
 licensee that it is not a competitor of Gaussian, Inc. and that
 it will not use this program in any manner prohibited above.
 ---------------------------------------------------------------
  

 Cite this work as:
 Gaussian 09, Revision D.01,
 M. J. Frisch, G. W. Trucks, H. B. Schlegel, G. E. Scuseria, 
 M. A. Robb, J. R. Cheeseman, G. Scalmani, V. Barone, B. Mennucci, 
 G. A. Petersson, H. Nakatsuji, M. Caricato, X. Li, H. P. Hratchian, 
 A. F. Izmaylov, J. Bloino, G. Zheng, J. L. Sonnenberg, M. Hada, 
 M. Ehara, K. Toyota, R. Fukuda, J. Hasegawa, M. Ishida, T. Nakajima, 
 Y. Honda, O. Kitao, H. Nakai, T. Vreven, J. A. Montgomery, Jr., 
 J. E. Peralta, F. Ogliaro, M. Bearpark, J. J. Heyd, E. Brothers, 
 K. N. Kudin, V. N. Staroverov, T. Keith, R. Kobayashi, J. Normand, 
 K. Raghavachari, A. Rendell, J. C. Burant, S. S. Iyengar, J. Tomasi, 
 M. Cossi, N. Rega, J. M. Millam, M. Klene, J. E. Knox, J. B. Cross, 
 V. Bakken, C. Adamo, J. Jaramillo, R. Gomperts, R. E. Stratmann, 
 O. Yazyev, A. J. Austin, R. Cammi, C. Pomelli, J. W. Ochterski, 
 R. L. Martin, K. Morokuma, V. G. Zakrzewski, G. A. Voth, 
 P. Salvador, J. J. Dannenberg, S. Dapprich, A. D. Daniels, 
 O. Farkas, J. B. Foresman, J. V. Ortiz, J. Cioslowski, 
 and D. J. Fox, Gaussian, Inc., Wallingford CT, 2013.
 
 ******************************************
 Gaussian 09:  AS64L-G09RevD.01 24-Apr-2013
                 6-Dec-2018 
 ******************************************
 %Chk=CH400093
 %Mem=2GB
 %NProcShared=16
 Will use up to   16 processors via shared memory.
 -----------------------------------------------------------
 #T M05/Gen test Massage Symmetry=None SCF=(tight,maxcyc=60)
 -----------------------------------------------------------
 -------
 M05 opt
 -------
 Symbolic Z-matrix:
 Charge =  0 Multiplicity = 1
 6                     0.        0.        0. 
 1                     0.86256   0.        0.69424 
 1                    -0.81155   0.62551   0.41966 
 1                     0.31414   0.41104  -0.97895 
 1                    -0.36516  -1.03655  -0.13495 
 6-Bq                  0.        0.        2.80902 
 1-Bq                 -1.04282   0.3259    2.98873 
 1-Bq                  0.20059  -0.92709   3.38021 
 1-Bq                  0.14521  -0.19348   1.72853 
 1-Bq                  0.69703   0.79468   3.13861 
 
                    Distance matrix (angstroms):
                    1          2          3          4          5
     1  C    0.000000
     2  H    1.107243   0.000000
     3  H    1.107243   1.808119   0.000000
     4  H    1.107243   1.808119   1.808119   0.000000
     5  H    1.107243   1.808119   1.808119   1.808119   0.000000
     6  C    2.809019   2.283920   2.599787   3.823135   3.142411
     7  H    3.182172   3.000232   2.596802   4.194178   3.474608
     8  H    3.510772   2.917551   3.492821   4.561331   3.562077
     9  H    1.745371   1.273488   1.816383   2.779284   2.108030
    10  H    3.311832   2.575625   3.114015   4.153082   3.898440
                    6          7          8          9         10
     6  C    0.000000
     7  H    1.107242   0.000000
     8  H    1.107242   1.808119   0.000000
     9  H    1.107242   1.808119   1.808119   0.000000
    10  H    1.107242   1.808119   1.808119   1.808119   0.000000
 Symmetry turned off by external request.
 Rotational constants (GHZ):     76.6916055      7.2364541      7.2364541
   276 basis functions,   360 primitive gaussians,   310 cartesian basis functions
     5 alpha electrons        5 beta electrons
       nuclear repulsion energy        13.2261669738 Hartrees.
 IMHF & INEx in M05                  614413                  385587
 NAtoms=   10 NActive=   10 NUniq=   10 SFac= 1.00D+00 NAtFMM=   60 NAOKFM=F Big=F
 ExpMin= 2.53D-02 ExpMax= 8.24D+03 ExpMxC= 2.81D+02 IAcc=3 IRadAn=         5 AccDes= 0.00D+00
 Harris functional with IExCor= 1009 and IRadAn=       5 diagonalized for initial guess.
 HarFok:  IExCor= 1009 AccDes= 0.00D+00 IRadAn=         5 IDoV= 1 UseB2=F ITyADJ=14
 ICtDFT=  3500011 ScaDFX=  1.000000  1.000000  1.000000  1.000000
 FoFCou: FMM=F IPFlag=           0 FMFlag=      100000 FMFlg1=           0
         NFxFlg=           0 DoJE=T BraDBF=F KetDBF=T FulRan=T
         wScrn=  0.000000 ICntrl=     500 IOpCl=  0 I1Cent=   200000004 NGrid=           0
         NMat0=    1 NMatS0=      1 NMatT0=    0 NMatD0=    1 NMtDS0=    0 NMtDT0=    0
 Symmetry not used in FoFCou.
 SCF Done:  E(RM05) =  -40.9123564281     A.U. after    8 cycles
            NFock=  8  Conv=0.18D-08     -V/T= 2.0127

 **********************************************************************

            Population analysis using the SCF density.

 **********************************************************************

 Alpha  occ. eigenvalues --  -10.74537  -0.82771  -0.48758  -0.48754  -0.48753
 Alpha virt. eigenvalues --   -0.00145   0.02434   0.02767   0.02822   0.04765
 Alpha virt. eigenvalues --    0.05213   0.05796   0.06704   0.08155   0.09149
 Alpha virt. eigenvalues --    0.09923   0.10359   0.10801   0.11397   0.13147
 Alpha virt. eigenvalues --    0.13352   0.15668   0.16381   0.17293   0.18465
 Alpha virt. eigenvalues --    0.21774   0.22138   0.23507   0.25629   0.25911
 Alpha virt. eigenvalues --    0.26312   0.27310   0.28072   0.28582   0.29192
 Alpha virt. eigenvalues --    0.29590   0.31085   0.31646   0.32404   0.33096
 Alpha virt. eigenvalues --    0.33815   0.35040   0.35926   0.36012   0.36857
 Alpha virt. eigenvalues --    0.37145   0.37893   0.40836   0.41083   0.42471
 Alpha virt. eigenvalues --    0.43771   0.44417   0.45319   0.46197   0.47642
 Alpha virt. eigenvalues --    0.49287   0.50848   0.51503   0.52461   0.53883
 Alpha virt. eigenvalues --    0.56192   0.56867   0.58005   0.59849   0.61163
 Alpha virt. eigenvalues --    0.63070   0.65485   0.67597   0.69530   0.71047
 Alpha virt. eigenvalues --    0.72205   0.72675   0.74429   0.78259   0.79457
 Alpha virt. eigenvalues --    0.81246   0.81441   0.82948   0.83928   0.86059
 Alpha virt. eigenvalues --    0.87192   0.88833   0.90911   0.92822   0.94777
 Alpha virt. eigenvalues --    0.95496   0.96259   0.97083   0.99123   0.99812
 Alpha virt. eigenvalues --    1.00471   1.01196   1.02342   1.03812   1.04455
 Alpha virt. eigenvalues --    1.06048   1.06532   1.07217   1.08698   1.09023
 Alpha virt. eigenvalues --    1.10841   1.12556   1.12969   1.13970   1.15113
 Alpha virt. eigenvalues --    1.16525   1.19465   1.20606   1.21188   1.23274
 Alpha virt. eigenvalues --    1.25300   1.27699   1.29146   1.30201   1.32231
 Alpha virt. eigenvalues --    1.33802   1.35016   1.37186   1.38588   1.41097
 Alpha virt. eigenvalues --    1.42354   1.42586   1.44955   1.46252   1.48082
 Alpha virt. eigenvalues --    1.49344   1.51518   1.53756   1.54723   1.56458
 Alpha virt. eigenvalues --    1.60199   1.63608   1.64046   1.66546   1.67989
 Alpha virt. eigenvalues --    1.71337   1.74372   1.76745   1.80346   1.80952
 Alpha virt. eigenvalues --    1.83353   1.84138   1.85628   1.86222   1.89305
 Alpha virt. eigenvalues --    1.91884   1.93127   1.96331   1.98961   1.99891
 Alpha virt. eigenvalues --    2.01868   2.03255   2.05344   2.08188   2.08932
 Alpha virt. eigenvalues --    2.11623   2.14139   2.16876   2.19445   2.29188
 Alpha virt. eigenvalues --    2.33857   2.35067   2.40071   2.42943   2.49048
 Alpha virt. eigenvalues --    2.57423   2.62258   2.64837   2.66408   2.71444
 Alpha virt. eigenvalues --    2.93361   2.99012   3.01202   3.06407   3.18037
 Alpha virt. eigenvalues --    3.25878   3.27744   3.30304   3.32223   3.37173
 Alpha virt. eigenvalues --    3.38932   3.46577   3.57217   3.60966   3.61769
 Alpha virt. eigenvalues --    3.64852   3.72531   3.74841   3.75767   3.77278
 Alpha virt. eigenvalues --    3.80743   3.85699   3.88176   3.88237   3.92718
 Alpha virt. eigenvalues --    4.00563   4.02310   4.05184   4.06906   4.13409
 Alpha virt. eigenvalues --    4.15756   4.18345   4.20006   4.20853   4.25971
 Alpha virt. eigenvalues --    4.29416   4.32509   4.33642   4.35581   4.37520
 Alpha virt. eigenvalues --    4.37620   4.41891   4.44423   4.47566   4.48388
 Alpha virt. eigenvalues --    4.51254   4.52043   4.54533   4.55978   4.62794
 Alpha virt. eigenvalues --    4.64378   4.67009   4.70103   4.72807   4.78444
 Alpha virt. eigenvalues --    4.79109   4.81812   4.84821   4.90213   4.91648
 Alpha virt. eigenvalues --    4.94299   4.99233   5.04756   5.09399   5.14159
 Alpha virt. eigenvalues --    5.18962   5.20975   5.22601   5.24210   5.25621
 Alpha virt. eigenvalues --    5.28382   5.35968   5.37898   5.39184   5.41476
 Alpha virt. eigenvalues --    5.43920   5.46514   5.52431   5.54699   5.59441
 Alpha virt. eigenvalues --    5.62116   5.67957   5.70956   5.81086   5.96154
 Alpha virt. eigenvalues --    6.08179   6.10008   6.12282   6.16888   6.17945
 Alpha virt. eigenvalues --    6.18837   6.35065   6.55893   6.79253   6.81380
 Alpha virt. eigenvalues --    6.92702   7.07622   7.63743   7.65244   7.83081
 Alpha virt. eigenvalues --    8.00726   8.03138   8.21123  10.45771  17.51827
 Alpha virt. eigenvalues --   54.05591
          Condensed to atoms (all electrons):
 Mulliken charges:
               1
     1  C   -2.161614
     2  H    0.661642
     3  H    0.491324
     4  H    0.425550
     5  H    0.480843
     6  C    0.018813
     7  H   -0.008364
     8  H    0.007616
     9  H    0.069589
    10  H    0.014600
 Sum of Mulliken charges =  -0.00000
 Mulliken charges with hydrogens summed into heavy atoms:
               1
     1  C   -0.102254
     6  C    0.102254
 Electronic spatial extent (au):  <R**2>=             36.5418
 Charge=             -0.0000 electrons
 Dipole moment (field-independent basis, Debye):
    X=             -0.0003    Y=             -0.0001    Z=             -0.0001  Tot=              0.0003

 Test job not archived.
 1\1\GINC-CHIMERA-NODE10\SP\RM05\Gen\C2H8\CONNORNM\06-Dec-2018\0\\#T M0
 5/Gen test Massage Symmetry=None SCF=(tight,maxcyc=60)\\M05 opt\\0,1\C
 ,0,0.,0.,0.\H,0,0.86256202,0.,0.69424255\H,0,-0.81154689,0.62550861,0.
 41966246\H,0,0.31414305,0.41104001,-0.97895159\H,0,-0.36515818,-1.0365
 4862,-0.13495343\C,0,0.,0.,2.80901872\H,0,-1.0428235,0.32589529,2.9887
 3338\H,0,0.20058862,-0.92708971,3.38020593\H,0,0.1452085,-0.19348148,1
 .72852561\H,0,0.69702638,0.7946759,3.13860997\\Version=AS64L-G09RevD.0
 1\HF=-40.9123564\RMSD=1.780e-09\Dipole=-0.0001047,-0.0000445,-0.000057
 1\Quadrupole=0.0002143,-0.000018,-0.0001963,0.000201,0.0000327,0.00013
 83\PG=Unknown\\@


 WHAT, THEN, IS TIME?  IF NO ONE ASKS ME, I KNOW WHAT IT IS.
 IF I WISH TO EXPLAIN WHAT IT IS TO HIM WHO ASKS ME, I DO NOT KNOW.
                                   -- ST. AUGUSTINE (FIFTH CENTURY)
 Job cpu time:       0 days  0 hours 16 minutes 52.5 seconds.
 File lengths (MBytes):  RWF=     41 Int=      0 D2E=      0 Chk=      4 Scr=      1
 Normal termination of Gaussian 09 at Thu Dec  6 13:21:09 2018.
