 Entering Gaussian System, Link 0=/data/szalewicgrp/connornm/opt/Gaussian/g09-M05-par/g09/g09
 AtFile(1): aug-cc-pVTZ.gbs
 Initial command:
 /data/szalewicgrp/connornm/opt/Gaussian/g09-M05-par/g09/l1.exe "/scratch/local/Gau-18685.inp" -scrdir="/scratch/local/"
 Entering Link 1 = /data/szalewicgrp/connornm/opt/Gaussian/g09-M05-par/g09/l1.exe PID=     18686.
  
 Copyright (c) 1988,1990,1992,1993,1995,1998,2003,2009,2013,
            Gaussian, Inc.  All Rights Reserved.
  
 This is part of the Gaussian(R) 09 program.  It is based on
 the Gaussian(R) 03 system (copyright 2003, Gaussian, Inc.),
 the Gaussian(R) 98 system (copyright 1998, Gaussian, Inc.),
 the Gaussian(R) 94 system (copyright 1995, Gaussian, Inc.),
 the Gaussian 92(TM) system (copyright 1992, Gaussian, Inc.),
 the Gaussian 90(TM) system (copyright 1990, Gaussian, Inc.),
 the Gaussian 88(TM) system (copyright 1988, Gaussian, Inc.),
 the Gaussian 86(TM) system (copyright 1986, Carnegie Mellon
 University), and the Gaussian 82(TM) system (copyright 1983,
 Carnegie Mellon University). Gaussian is a federally registered
 trademark of Gaussian, Inc.
  
 This software contains proprietary and confidential information,
 including trade secrets, belonging to Gaussian, Inc.
  
 This software is provided under written license and may be
 used, copied, transmitted, or stored only in accord with that
 written license.
  
 The following legend is applicable only to US Government
 contracts under FAR:
  
                    RESTRICTED RIGHTS LEGEND
  
 Use, reproduction and disclosure by the US Government is
 subject to restrictions as set forth in subparagraphs (a)
 and (c) of the Commercial Computer Software - Restricted
 Rights clause in FAR 52.227-19.
  
 Gaussian, Inc.
 340 Quinnipiac St., Bldg. 40, Wallingford CT 06492
  
  
 ---------------------------------------------------------------
 Warning -- This program may not be used in any manner that
 competes with the business of Gaussian, Inc. or will provide
 assistance to any competitor of Gaussian, Inc.  The licensee
 of this program is prohibited from giving any competitor of
 Gaussian, Inc. access to this program.  By using this program,
 the user acknowledges that Gaussian, Inc. is engaged in the
 business of creating and licensing software in the field of
 computational chemistry and represents and warrants to the
 licensee that it is not a competitor of Gaussian, Inc. and that
 it will not use this program in any manner prohibited above.
 ---------------------------------------------------------------
  

 Cite this work as:
 Gaussian 09, Revision D.01,
 M. J. Frisch, G. W. Trucks, H. B. Schlegel, G. E. Scuseria, 
 M. A. Robb, J. R. Cheeseman, G. Scalmani, V. Barone, B. Mennucci, 
 G. A. Petersson, H. Nakatsuji, M. Caricato, X. Li, H. P. Hratchian, 
 A. F. Izmaylov, J. Bloino, G. Zheng, J. L. Sonnenberg, M. Hada, 
 M. Ehara, K. Toyota, R. Fukuda, J. Hasegawa, M. Ishida, T. Nakajima, 
 Y. Honda, O. Kitao, H. Nakai, T. Vreven, J. A. Montgomery, Jr., 
 J. E. Peralta, F. Ogliaro, M. Bearpark, J. J. Heyd, E. Brothers, 
 K. N. Kudin, V. N. Staroverov, T. Keith, R. Kobayashi, J. Normand, 
 K. Raghavachari, A. Rendell, J. C. Burant, S. S. Iyengar, J. Tomasi, 
 M. Cossi, N. Rega, J. M. Millam, M. Klene, J. E. Knox, J. B. Cross, 
 V. Bakken, C. Adamo, J. Jaramillo, R. Gomperts, R. E. Stratmann, 
 O. Yazyev, A. J. Austin, R. Cammi, C. Pomelli, J. W. Ochterski, 
 R. L. Martin, K. Morokuma, V. G. Zakrzewski, G. A. Voth, 
 P. Salvador, J. J. Dannenberg, S. Dapprich, A. D. Daniels, 
 O. Farkas, J. B. Foresman, J. V. Ortiz, J. Cioslowski, 
 and D. J. Fox, Gaussian, Inc., Wallingford CT, 2013.
 
 ******************************************
 Gaussian 09:  AS64L-G09RevD.01 24-Apr-2013
                 6-Dec-2018 
 ******************************************
 %Chk=CH400158
 %Mem=2GB
 %NProcShared=16
 Will use up to   16 processors via shared memory.
 -----------------------------------------------------------
 #T M05/Gen test Massage Symmetry=None SCF=(tight,maxcyc=60)
 -----------------------------------------------------------
 -------
 M05 opt
 -------
 Symbolic Z-matrix:
 Charge =  0 Multiplicity = 1
 6                     0.        0.        0. 
 1                     1.10666   0.        0.03591 
 1                    -0.39694   0.58433   0.85263 
 1                    -0.33845   0.457    -0.95005 
 1                    -0.37127  -1.04133   0.0615 
 6-Bq                  0.        0.        2.95328 
 1-Bq                  1.08653   0.08878   2.75947 
 1-Bq                 -0.52639  -0.2282    2.00627 
 1-Bq                 -0.17972  -0.81487   3.68106 
 1-Bq                 -0.38042   0.95429   3.36631 
 
                    Distance matrix (angstroms):
                    1          2          3          4          5
     1  C    0.000000
     2  H    1.107243   0.000000
     3  H    1.107242   1.808119   0.000000
     4  H    1.107242   1.808119   1.808119   0.000000
     5  H    1.107242   1.808119   1.808119   1.808119   0.000000
     6  C    2.953278   3.120213   2.216236   3.944533   3.095896
     7  H    2.967000   2.725079   2.466225   3.990820   3.268232
     8  H    2.086694   2.569292   1.416978   3.040500   2.113617
     9  H    3.774457   3.950431   3.163059   4.805208   3.631692
    10  H    3.519580   3.770098   2.540810   4.345113   3.860615
                    6          7          8          9         10
     6  C    0.000000
     7  H    1.107243   0.000000
     8  H    1.107243   1.808119   0.000000
     9  H    1.107242   1.808119   1.808119   0.000000
    10  H    1.107243   1.808119   1.808119   1.808119   0.000000
 Symmetry turned off by external request.
 Rotational constants (GHZ):     76.6916056      6.6061697      6.6061697
   276 basis functions,   360 primitive gaussians,   310 cartesian basis functions
     5 alpha electrons        5 beta electrons
       nuclear repulsion energy        13.2261670229 Hartrees.
 IMHF & INEx in M05                  614413                  385587
 NAtoms=   10 NActive=   10 NUniq=   10 SFac= 1.00D+00 NAtFMM=   60 NAOKFM=F Big=F
 ExpMin= 2.53D-02 ExpMax= 8.24D+03 ExpMxC= 2.81D+02 IAcc=3 IRadAn=         5 AccDes= 0.00D+00
 Harris functional with IExCor= 1009 and IRadAn=       5 diagonalized for initial guess.
 HarFok:  IExCor= 1009 AccDes= 0.00D+00 IRadAn=         5 IDoV= 1 UseB2=F ITyADJ=14
 ICtDFT=  3500011 ScaDFX=  1.000000  1.000000  1.000000  1.000000
 FoFCou: FMM=F IPFlag=           0 FMFlag=      100000 FMFlg1=           0
         NFxFlg=           0 DoJE=T BraDBF=F KetDBF=T FulRan=T
         wScrn=  0.000000 ICntrl=     500 IOpCl=  0 I1Cent=   200000004 NGrid=           0
         NMat0=    1 NMatS0=      1 NMatT0=    0 NMatD0=    1 NMtDS0=    0 NMtDT0=    0
 Symmetry not used in FoFCou.
 EnCoef did   100 forward-backward iterations
 Restarting incremental Fock formation.
 SCF Done:  E(RM05) =  -47.1007163977     A.U. after   22 cycles
            NFock= 22  Conv=0.96D-08     -V/T= 2.0179

 **********************************************************************

            Population analysis using the SCF density.

 **********************************************************************

 Alpha  occ. eigenvalues --  -11.25560  -0.78119  -0.59332  -0.59309  -0.59302
 Alpha virt. eigenvalues --   -0.27444  -0.22681  -0.22643  -0.22589  -0.18671
 Alpha virt. eigenvalues --   -0.18521  -0.18324  -0.16952  -0.16646  -0.08275
 Alpha virt. eigenvalues --   -0.07153  -0.06477  -0.05994  -0.05173  -0.04606
 Alpha virt. eigenvalues --   -0.04128  -0.03183  -0.00706  -0.00569  -0.00490
 Alpha virt. eigenvalues --    0.00822   0.02476   0.02846   0.04128   0.04863
 Alpha virt. eigenvalues --    0.05611   0.05924   0.06623   0.06959   0.07514
 Alpha virt. eigenvalues --    0.07618   0.08467   0.09402   0.09455   0.09692
 Alpha virt. eigenvalues --    0.10812   0.11508   0.11904   0.12980   0.13420
 Alpha virt. eigenvalues --    0.14623   0.14751   0.15535   0.17006   0.20304
 Alpha virt. eigenvalues --    0.20571   0.21987   0.23298   0.24621   0.25696
 Alpha virt. eigenvalues --    0.26231   0.27176   0.28817   0.30302   0.30796
 Alpha virt. eigenvalues --    0.31640   0.32721   0.33487   0.34019   0.34581
 Alpha virt. eigenvalues --    0.35330   0.35759   0.36578   0.36910   0.37918
 Alpha virt. eigenvalues --    0.39110   0.40131   0.40787   0.41508   0.42017
 Alpha virt. eigenvalues --    0.43541   0.43860   0.45450   0.46808   0.48312
 Alpha virt. eigenvalues --    0.50530   0.52198   0.52265   0.54000   0.54368
 Alpha virt. eigenvalues --    0.55055   0.56059   0.56972   0.57423   0.57455
 Alpha virt. eigenvalues --    0.59260   0.60462   0.61251   0.62444   0.64491
 Alpha virt. eigenvalues --    0.66008   0.68930   0.70182   0.70821   0.72606
 Alpha virt. eigenvalues --    0.74824   0.76736   0.77813   0.79345   0.80263
 Alpha virt. eigenvalues --    0.81644   0.81836   0.83139   0.84199   0.86099
 Alpha virt. eigenvalues --    0.86369   0.87108   0.87335   0.88167   0.90105
 Alpha virt. eigenvalues --    0.91137   0.92479   0.93277   0.95614   0.96253
 Alpha virt. eigenvalues --    0.96710   0.99231   1.00990   1.01601   1.03119
 Alpha virt. eigenvalues --    1.03626   1.04526   1.05962   1.07253   1.08569
 Alpha virt. eigenvalues --    1.09242   1.11196   1.12221   1.12978   1.13124
 Alpha virt. eigenvalues --    1.16299   1.16557   1.19329   1.20977   1.22095
 Alpha virt. eigenvalues --    1.23880   1.25709   1.27243   1.28105   1.30282
 Alpha virt. eigenvalues --    1.32874   1.37197   1.39022   1.39195   1.42491
 Alpha virt. eigenvalues --    1.45814   1.49240   1.49766   1.52106   1.53589
 Alpha virt. eigenvalues --    1.55894   1.56828   1.60078   1.64297   1.67390
 Alpha virt. eigenvalues --    1.68633   1.73191   1.73794   1.76951   1.80139
 Alpha virt. eigenvalues --    1.85321   1.95891   1.98270   1.99547   2.01668
 Alpha virt. eigenvalues --    2.03948   2.05088   2.06346   2.08577   2.09740
 Alpha virt. eigenvalues --    2.11424   2.14429   2.15140   2.16371   2.17942
 Alpha virt. eigenvalues --    2.18469   2.22810   2.25450   2.25660   2.29079
 Alpha virt. eigenvalues --    2.29916   2.31661   2.31920   2.33113   2.34916
 Alpha virt. eigenvalues --    2.36473   2.39214   2.39509   2.47041   2.51717
 Alpha virt. eigenvalues --    2.62326   2.63707   2.64926   2.66038   2.66817
 Alpha virt. eigenvalues --    2.68490   2.69887   2.71253   2.71571   2.75368
 Alpha virt. eigenvalues --    2.77958   2.79899   2.92790   2.95129   2.97107
 Alpha virt. eigenvalues --    3.09677   3.12788   3.15512   3.20288   3.22576
 Alpha virt. eigenvalues --    3.25654   3.26540   3.27337   3.28504   3.29006
 Alpha virt. eigenvalues --    3.31207   3.35637   3.39367   3.50698   3.59386
 Alpha virt. eigenvalues --    3.61739   3.67071   3.72591   3.73264   3.77492
 Alpha virt. eigenvalues --    3.79283   3.80609   3.81182   3.86913   3.91818
 Alpha virt. eigenvalues --    3.95626   4.00157   4.05051   4.10698   4.14736
 Alpha virt. eigenvalues --    4.17071   4.22775   4.30486   4.35928   4.42903
 Alpha virt. eigenvalues --    4.48088   4.54220   4.60662   4.63804   4.68908
 Alpha virt. eigenvalues --    4.77128   4.89210   4.92209   4.94107   5.03620
 Alpha virt. eigenvalues --    5.13435   5.17505   5.19829   5.51229   5.55325
 Alpha virt. eigenvalues --    5.65747   5.68476   5.71389   5.82708   6.31803
 Alpha virt. eigenvalues --    6.33460   6.52255   6.57315   7.11721   7.23608
 Alpha virt. eigenvalues --    7.42414   7.43915   7.49214   9.61668  13.00083
 Alpha virt. eigenvalues --   51.62868
          Condensed to atoms (all electrons):
 Mulliken charges:
               1
     1  C   -0.777438
     2  H    0.193226
     3  H    1.331823
     4  H   -0.663887
     5  H    0.116764
     6  C    0.090013
     7  H   -0.012182
     8  H   -0.272854
     9  H   -0.033431
    10  H    0.027967
 Sum of Mulliken charges =  -0.00000
 Mulliken charges with hydrogens summed into heavy atoms:
               1
     1  C    0.200487
     6  C   -0.200487
 Electronic spatial extent (au):  <R**2>=             40.0860
 Charge=             -0.0000 electrons
 Dipole moment (field-independent basis, Debye):
    X=             -0.0009    Y=              0.0031    Z=             -0.0058  Tot=              0.0067

 Test job not archived.
 1\1\GINC-CHIMERA-NODE14\SP\RM05\Gen\C2H8\CONNORNM\06-Dec-2018\0\\#T M0
 5/Gen test Massage Symmetry=None SCF=(tight,maxcyc=60)\\M05 opt\\0,1\C
 ,0,0.,0.,0.\H,0,1.10666001,0.,0.03591067\H,0,-0.39694275,0.58432541,0.
 85263487\H,0,-0.33844645,0.45700139,-0.9500472\H,0,-0.3712708,-1.04132
 679,0.06150166\C,0,0.,0.,2.95327804\H,0,1.08652763,0.08877781,2.759468
 42\H,0,-0.52639454,-0.22819601,2.00627153\H,0,-0.17971739,-0.81487394,
 3.68106102\H,0,-0.38041569,0.95429214,3.36631119\\Version=AS64L-G09Rev
 D.01\HF=-47.1007164\RMSD=9.593e-09\Dipole=-0.00036,0.0012204,-0.002295
 5\Quadrupole=0.0042541,0.0037879,-0.008042,-0.002264,0.0026862,0.00969
 03\PG=Unknown\\@


 IN THE FIGHT BETWEEN YOU AND THE WORLD, BACK THE WORLD

                                        -- FRANZ KAFKA
 Job cpu time:       0 days  0 hours 38 minutes 51.7 seconds.
 File lengths (MBytes):  RWF=     41 Int=      0 D2E=      0 Chk=      4 Scr=      1
 Normal termination of Gaussian 09 at Thu Dec  6 13:18:20 2018.
