 Entering Gaussian System, Link 0=/data/szalewicgrp/connornm/opt/Gaussian/g09-M05-par/g09/g09
 AtFile(1): aug-cc-pVTZ.gbs
 Initial command:
 /data/szalewicgrp/connornm/opt/Gaussian/g09-M05-par/g09/l1.exe "/scratch/local/Gau-16593.inp" -scrdir="/scratch/local/"
 Entering Link 1 = /data/szalewicgrp/connornm/opt/Gaussian/g09-M05-par/g09/l1.exe PID=     16594.
  
 Copyright (c) 1988,1990,1992,1993,1995,1998,2003,2009,2013,
            Gaussian, Inc.  All Rights Reserved.
  
 This is part of the Gaussian(R) 09 program.  It is based on
 the Gaussian(R) 03 system (copyright 2003, Gaussian, Inc.),
 the Gaussian(R) 98 system (copyright 1998, Gaussian, Inc.),
 the Gaussian(R) 94 system (copyright 1995, Gaussian, Inc.),
 the Gaussian 92(TM) system (copyright 1992, Gaussian, Inc.),
 the Gaussian 90(TM) system (copyright 1990, Gaussian, Inc.),
 the Gaussian 88(TM) system (copyright 1988, Gaussian, Inc.),
 the Gaussian 86(TM) system (copyright 1986, Carnegie Mellon
 University), and the Gaussian 82(TM) system (copyright 1983,
 Carnegie Mellon University). Gaussian is a federally registered
 trademark of Gaussian, Inc.
  
 This software contains proprietary and confidential information,
 including trade secrets, belonging to Gaussian, Inc.
  
 This software is provided under written license and may be
 used, copied, transmitted, or stored only in accord with that
 written license.
  
 The following legend is applicable only to US Government
 contracts under FAR:
  
                    RESTRICTED RIGHTS LEGEND
  
 Use, reproduction and disclosure by the US Government is
 subject to restrictions as set forth in subparagraphs (a)
 and (c) of the Commercial Computer Software - Restricted
 Rights clause in FAR 52.227-19.
  
 Gaussian, Inc.
 340 Quinnipiac St., Bldg. 40, Wallingford CT 06492
  
  
 ---------------------------------------------------------------
 Warning -- This program may not be used in any manner that
 competes with the business of Gaussian, Inc. or will provide
 assistance to any competitor of Gaussian, Inc.  The licensee
 of this program is prohibited from giving any competitor of
 Gaussian, Inc. access to this program.  By using this program,
 the user acknowledges that Gaussian, Inc. is engaged in the
 business of creating and licensing software in the field of
 computational chemistry and represents and warrants to the
 licensee that it is not a competitor of Gaussian, Inc. and that
 it will not use this program in any manner prohibited above.
 ---------------------------------------------------------------
  

 Cite this work as:
 Gaussian 09, Revision D.01,
 M. J. Frisch, G. W. Trucks, H. B. Schlegel, G. E. Scuseria, 
 M. A. Robb, J. R. Cheeseman, G. Scalmani, V. Barone, B. Mennucci, 
 G. A. Petersson, H. Nakatsuji, M. Caricato, X. Li, H. P. Hratchian, 
 A. F. Izmaylov, J. Bloino, G. Zheng, J. L. Sonnenberg, M. Hada, 
 M. Ehara, K. Toyota, R. Fukuda, J. Hasegawa, M. Ishida, T. Nakajima, 
 Y. Honda, O. Kitao, H. Nakai, T. Vreven, J. A. Montgomery, Jr., 
 J. E. Peralta, F. Ogliaro, M. Bearpark, J. J. Heyd, E. Brothers, 
 K. N. Kudin, V. N. Staroverov, T. Keith, R. Kobayashi, J. Normand, 
 K. Raghavachari, A. Rendell, J. C. Burant, S. S. Iyengar, J. Tomasi, 
 M. Cossi, N. Rega, J. M. Millam, M. Klene, J. E. Knox, J. B. Cross, 
 V. Bakken, C. Adamo, J. Jaramillo, R. Gomperts, R. E. Stratmann, 
 O. Yazyev, A. J. Austin, R. Cammi, C. Pomelli, J. W. Ochterski, 
 R. L. Martin, K. Morokuma, V. G. Zakrzewski, G. A. Voth, 
 P. Salvador, J. J. Dannenberg, S. Dapprich, A. D. Daniels, 
 O. Farkas, J. B. Foresman, J. V. Ortiz, J. Cioslowski, 
 and D. J. Fox, Gaussian, Inc., Wallingford CT, 2013.
 
 ******************************************
 Gaussian 09:  AS64L-G09RevD.01 24-Apr-2013
                 5-Dec-2018 
 ******************************************
 %Chk=CH400275
 %Mem=2GB
 %NProcShared=16
 Will use up to   16 processors via shared memory.
 -----------------------------------------------------------
 #T M05/Gen test Massage Symmetry=None SCF=(tight,maxcyc=60)
 -----------------------------------------------------------
 -------
 M05 opt
 -------
 Symbolic Z-matrix:
 Charge =  0 Multiplicity = 1
 6                     0.        0.        0. 
 1                     1.10649   0.       -0.04083 
 1                    -0.33034  -0.01457   1.05672 
 1                    -0.38761   0.91126  -0.49533 
 1                    -0.38854  -0.89669  -0.52055 
 6-Bq                  0.        0.        3.88439 
 1-Bq                 -0.31205   0.38912   4.87292 
 1-Bq                 -0.53059  -0.9495    3.67726 
 1-Bq                 -0.24977   0.74098   3.10046 
 1-Bq                  1.09241  -0.18061   3.88692 
 
                    Distance matrix (angstroms):
                    1          2          3          4          5
     1  C    0.000000
     2  H    1.107242   0.000000
     3  H    1.107242   1.808119   0.000000
     4  H    1.107243   1.808119   1.808119   0.000000
     5  H    1.107243   1.808119   1.808119   1.808119   0.000000
     6  C    3.884390   4.078197   2.846940   4.490279   4.512043
     7  H    4.898384   5.129196   3.837542   5.394117   5.545155
     8  H    3.834750   4.172024   2.789522   4.570928   4.200546
     9  H    3.197549   3.500892   2.180425   3.602463   3.976554
    10  H    4.041547   3.931924   3.172035   4.752551   4.704443
                    6          7          8          9         10
     6  C    0.000000
     7  H    1.107243   0.000000
     8  H    1.107243   1.808119   0.000000
     9  H    1.107242   1.808119   1.808119   0.000000
    10  H    1.107242   1.808119   1.808119   1.808119   0.000000
 Symmetry turned off by external request.
 Rotational constants (GHZ):     76.6916054      3.9627063      3.9627063
   276 basis functions,   360 primitive gaussians,   310 cartesian basis functions
     5 alpha electrons        5 beta electrons
       nuclear repulsion energy        13.2261669931 Hartrees.
 IMHF & INEx in M05                  614413                  385587
 NAtoms=   10 NActive=   10 NUniq=   10 SFac= 1.00D+00 NAtFMM=   60 NAOKFM=F Big=F
 ExpMin= 2.53D-02 ExpMax= 8.24D+03 ExpMxC= 2.81D+02 IAcc=3 IRadAn=         5 AccDes= 0.00D+00
 Harris functional with IExCor= 1009 and IRadAn=       5 diagonalized for initial guess.
 HarFok:  IExCor= 1009 AccDes= 0.00D+00 IRadAn=         5 IDoV= 1 UseB2=F ITyADJ=14
 ICtDFT=  3500011 ScaDFX=  1.000000  1.000000  1.000000  1.000000
 FoFCou: FMM=F IPFlag=           0 FMFlag=      100000 FMFlg1=           0
         NFxFlg=           0 DoJE=T BraDBF=F KetDBF=T FulRan=T
         wScrn=  0.000000 ICntrl=     500 IOpCl=  0 I1Cent=   200000004 NGrid=           0
         NMat0=    1 NMatS0=      1 NMatT0=    0 NMatD0=    1 NMtDS0=    0 NMtDT0=    0
 Symmetry not used in FoFCou.
 SCF Done:  E(RM05) =  -40.9122481460     A.U. after    7 cycles
            NFock=  7  Conv=0.47D-08     -V/T= 2.0127

 **********************************************************************

            Population analysis using the SCF density.

 **********************************************************************

 Alpha  occ. eigenvalues --  -10.74526  -0.82768  -0.48752  -0.48751  -0.48750
 Alpha virt. eigenvalues --   -0.00135   0.02353   0.02759   0.02866   0.04668
 Alpha virt. eigenvalues --    0.05023   0.05258   0.07199   0.07876   0.09009
 Alpha virt. eigenvalues --    0.09580   0.10607   0.11781   0.11982   0.12308
 Alpha virt. eigenvalues --    0.13315   0.14948   0.15144   0.16618   0.16766
 Alpha virt. eigenvalues --    0.20693   0.21638   0.22791   0.24541   0.25698
 Alpha virt. eigenvalues --    0.26391   0.26857   0.28025   0.28569   0.28886
 Alpha virt. eigenvalues --    0.29696   0.30209   0.30312   0.30937   0.31728
 Alpha virt. eigenvalues --    0.32567   0.33057   0.34615   0.35208   0.35539
 Alpha virt. eigenvalues --    0.35935   0.36779   0.36964   0.37986   0.40266
 Alpha virt. eigenvalues --    0.41697   0.42623   0.43763   0.44560   0.46098
 Alpha virt. eigenvalues --    0.46782   0.46989   0.48713   0.50745   0.51552
 Alpha virt. eigenvalues --    0.54657   0.55349   0.56627   0.59912   0.59973
 Alpha virt. eigenvalues --    0.63955   0.64705   0.66570   0.66924   0.70098
 Alpha virt. eigenvalues --    0.71903   0.72266   0.73226   0.78037   0.79596
 Alpha virt. eigenvalues --    0.80313   0.80697   0.85066   0.86351   0.86720
 Alpha virt. eigenvalues --    0.88574   0.90678   0.90886   0.91844   0.92897
 Alpha virt. eigenvalues --    0.94127   0.94911   0.95758   0.96255   0.97152
 Alpha virt. eigenvalues --    0.98146   0.98702   0.99118   0.99982   1.00456
 Alpha virt. eigenvalues --    1.01686   1.02103   1.02515   1.04350   1.05359
 Alpha virt. eigenvalues --    1.05893   1.06577   1.08539   1.09431   1.11366
 Alpha virt. eigenvalues --    1.12527   1.13479   1.15125   1.15489   1.17370
 Alpha virt. eigenvalues --    1.18681   1.20302   1.21798   1.22725   1.24702
 Alpha virt. eigenvalues --    1.25995   1.28133   1.29128   1.30296   1.33813
 Alpha virt. eigenvalues --    1.36721   1.37613   1.38899   1.40359   1.43196
 Alpha virt. eigenvalues --    1.44272   1.45898   1.46813   1.47681   1.47897
 Alpha virt. eigenvalues --    1.52039   1.53586   1.55850   1.59949   1.62317
 Alpha virt. eigenvalues --    1.63090   1.67345   1.69634   1.70771   1.71153
 Alpha virt. eigenvalues --    1.75036   1.75942   1.78927   1.80435   1.83265
 Alpha virt. eigenvalues --    1.84062   1.86996   1.88241   1.92858   1.93585
 Alpha virt. eigenvalues --    1.98460   1.99532   2.00089   2.01106   2.02058
 Alpha virt. eigenvalues --    2.04514   2.06155   2.07218   2.10548   2.15969
 Alpha virt. eigenvalues --    2.20721   2.27995   2.29570   2.36266   2.44089
 Alpha virt. eigenvalues --    2.45901   2.58091   2.65877   2.68181   2.72200
 Alpha virt. eigenvalues --    2.76164   2.80639   2.89721   2.92959   2.94277
 Alpha virt. eigenvalues --    3.20297   3.22258   3.23037   3.25122   3.26369
 Alpha virt. eigenvalues --    3.28523   3.31058   3.36589   3.58383   3.59579
 Alpha virt. eigenvalues --    3.66693   3.70473   3.71652   3.72052   3.73233
 Alpha virt. eigenvalues --    3.75484   3.78345   3.79420   3.82422   3.84122
 Alpha virt. eigenvalues --    3.86208   3.96927   3.99975   4.01128   4.03596
 Alpha virt. eigenvalues --    4.05192   4.13968   4.18996   4.19218   4.20326
 Alpha virt. eigenvalues --    4.20576   4.21351   4.32908   4.34094   4.34682
 Alpha virt. eigenvalues --    4.35258   4.37371   4.39886   4.41044   4.42657
 Alpha virt. eigenvalues --    4.44725   4.48419   4.49191   4.50206   4.51815
 Alpha virt. eigenvalues --    4.52609   4.53643   4.57176   4.57387   4.61227
 Alpha virt. eigenvalues --    4.66773   4.75956   4.78610   4.79783   4.83379
 Alpha virt. eigenvalues --    4.89782   4.91123   4.91964   4.97801   5.11498
 Alpha virt. eigenvalues --    5.13642   5.14014   5.16000   5.16679   5.21194
 Alpha virt. eigenvalues --    5.24506   5.26921   5.28106   5.29446   5.32564
 Alpha virt. eigenvalues --    5.32837   5.38755   5.41676   5.45603   5.47362
 Alpha virt. eigenvalues --    5.50442   5.51266   5.58358   5.59578   5.67935
 Alpha virt. eigenvalues --    6.05255   6.07238   6.09275   6.11531   6.12685
 Alpha virt. eigenvalues --    6.13606   6.20993   6.22001   6.78196   6.79521
 Alpha virt. eigenvalues --    6.80517   6.94407   7.61563   7.62856   7.65984
 Alpha virt. eigenvalues --    8.00639   8.06348   8.06968  10.29721  16.93780
 Alpha virt. eigenvalues --   52.36972
          Condensed to atoms (all electrons):
 Mulliken charges:
               1
     1  C   -1.933618
     2  H    0.412606
     3  H    0.693014
     4  H    0.412744
     5  H    0.414782
     6  C   -0.003332
     7  H   -0.000828
     8  H    0.004871
     9  H   -0.000699
    10  H    0.000459
 Sum of Mulliken charges =  -0.00000
 Mulliken charges with hydrogens summed into heavy atoms:
               1
     1  C   -0.000472
     6  C    0.000472
 Electronic spatial extent (au):  <R**2>=             36.5420
 Charge=              0.0000 electrons
 Dipole moment (field-independent basis, Debye):
    X=             -0.0002    Y=             -0.0000    Z=              0.0004  Tot=              0.0004

 Test job not archived.
 1\1\GINC-CHIMERA-NODE50\SP\RM05\Gen\C2H8\CONNORNM\05-Dec-2018\0\\#T M0
 5/Gen test Massage Symmetry=None SCF=(tight,maxcyc=60)\\M05 opt\\0,1\C
 ,0,0.,0.,0.\H,0,1.10648935,0.,-0.0408322\H,0,-0.33033657,-0.01457092,1
 .05671727\H,0,-0.38761105,0.91125711,-0.49533233\H,0,-0.38854174,-0.89
 668619,-0.52055274\C,0,0.,0.,3.88439043\H,0,-0.31204523,0.38912369,4.8
 7292292\H,0,-0.53059195,-0.94950219,3.67725827\H,0,-0.24977351,0.74098
 435,3.10046356\H,0,1.09241068,-0.18060585,3.88691697\\Version=AS64L-G0
 9RevD.01\HF=-40.9122481\RMSD=4.678e-09\Dipole=-0.0000636,-0.0000159,0.
 0001561\Quadrupole=0.0001391,0.0001897,-0.0003288,0.0001744,-0.0004235
 ,-0.0000832\PG=Unknown\\@


 LIFE CAN ONLY BE UNDERSTOOD BACKWARD, BUT MUST
 BE LIVED FORWARD. -- KIRKEGAARD
 Job cpu time:       0 days  0 hours 11 minutes 43.2 seconds.
 File lengths (MBytes):  RWF=     41 Int=      0 D2E=      0 Chk=      4 Scr=      1
 Normal termination of Gaussian 09 at Wed Dec  5 21:54:30 2018.
