 Entering Gaussian System, Link 0=/data/szalewicgrp/connornm/opt/Gaussian/g09-M05-par/g09/g09
 AtFile(1): aug-cc-pVTZ.gbs
 Initial command:
 /data/szalewicgrp/connornm/opt/Gaussian/g09-M05-par/g09/l1.exe "/scratch/local/Gau-4582.inp" -scrdir="/scratch/local/"
 Entering Link 1 = /data/szalewicgrp/connornm/opt/Gaussian/g09-M05-par/g09/l1.exe PID=      4583.
  
 Copyright (c) 1988,1990,1992,1993,1995,1998,2003,2009,2013,
            Gaussian, Inc.  All Rights Reserved.
  
 This is part of the Gaussian(R) 09 program.  It is based on
 the Gaussian(R) 03 system (copyright 2003, Gaussian, Inc.),
 the Gaussian(R) 98 system (copyright 1998, Gaussian, Inc.),
 the Gaussian(R) 94 system (copyright 1995, Gaussian, Inc.),
 the Gaussian 92(TM) system (copyright 1992, Gaussian, Inc.),
 the Gaussian 90(TM) system (copyright 1990, Gaussian, Inc.),
 the Gaussian 88(TM) system (copyright 1988, Gaussian, Inc.),
 the Gaussian 86(TM) system (copyright 1986, Carnegie Mellon
 University), and the Gaussian 82(TM) system (copyright 1983,
 Carnegie Mellon University). Gaussian is a federally registered
 trademark of Gaussian, Inc.
  
 This software contains proprietary and confidential information,
 including trade secrets, belonging to Gaussian, Inc.
  
 This software is provided under written license and may be
 used, copied, transmitted, or stored only in accord with that
 written license.
  
 The following legend is applicable only to US Government
 contracts under FAR:
  
                    RESTRICTED RIGHTS LEGEND
  
 Use, reproduction and disclosure by the US Government is
 subject to restrictions as set forth in subparagraphs (a)
 and (c) of the Commercial Computer Software - Restricted
 Rights clause in FAR 52.227-19.
  
 Gaussian, Inc.
 340 Quinnipiac St., Bldg. 40, Wallingford CT 06492
  
  
 ---------------------------------------------------------------
 Warning -- This program may not be used in any manner that
 competes with the business of Gaussian, Inc. or will provide
 assistance to any competitor of Gaussian, Inc.  The licensee
 of this program is prohibited from giving any competitor of
 Gaussian, Inc. access to this program.  By using this program,
 the user acknowledges that Gaussian, Inc. is engaged in the
 business of creating and licensing software in the field of
 computational chemistry and represents and warrants to the
 licensee that it is not a competitor of Gaussian, Inc. and that
 it will not use this program in any manner prohibited above.
 ---------------------------------------------------------------
  

 Cite this work as:
 Gaussian 09, Revision D.01,
 M. J. Frisch, G. W. Trucks, H. B. Schlegel, G. E. Scuseria, 
 M. A. Robb, J. R. Cheeseman, G. Scalmani, V. Barone, B. Mennucci, 
 G. A. Petersson, H. Nakatsuji, M. Caricato, X. Li, H. P. Hratchian, 
 A. F. Izmaylov, J. Bloino, G. Zheng, J. L. Sonnenberg, M. Hada, 
 M. Ehara, K. Toyota, R. Fukuda, J. Hasegawa, M. Ishida, T. Nakajima, 
 Y. Honda, O. Kitao, H. Nakai, T. Vreven, J. A. Montgomery, Jr., 
 J. E. Peralta, F. Ogliaro, M. Bearpark, J. J. Heyd, E. Brothers, 
 K. N. Kudin, V. N. Staroverov, T. Keith, R. Kobayashi, J. Normand, 
 K. Raghavachari, A. Rendell, J. C. Burant, S. S. Iyengar, J. Tomasi, 
 M. Cossi, N. Rega, J. M. Millam, M. Klene, J. E. Knox, J. B. Cross, 
 V. Bakken, C. Adamo, J. Jaramillo, R. Gomperts, R. E. Stratmann, 
 O. Yazyev, A. J. Austin, R. Cammi, C. Pomelli, J. W. Ochterski, 
 R. L. Martin, K. Morokuma, V. G. Zakrzewski, G. A. Voth, 
 P. Salvador, J. J. Dannenberg, S. Dapprich, A. D. Daniels, 
 O. Farkas, J. B. Foresman, J. V. Ortiz, J. Cioslowski, 
 and D. J. Fox, Gaussian, Inc., Wallingford CT, 2013.
 
 ******************************************
 Gaussian 09:  AS64L-G09RevD.01 24-Apr-2013
                 5-Dec-2018 
 ******************************************
 %Chk=CH400279
 %Mem=2GB
 %NProcShared=16
 Will use up to   16 processors via shared memory.
 -----------------------------------------------------------
 #T M05/Gen test Massage Symmetry=None SCF=(tight,maxcyc=60)
 -----------------------------------------------------------
 -------
 M05 opt
 -------
 Symbolic Z-matrix:
 Charge =  0 Multiplicity = 1
 6                     0.        0.        0. 
 1                     1.10712   0.        0.01642 
 1                    -0.37658  -0.91175   0.50288 
 1                    -0.37698   0.89617   0.52986 
 1                    -0.35356   0.01558  -1.04916 
 6-Bq                  0.        0.        3.19516 
 1-Bq                 -0.99685  -0.14318   2.73497 
 1-Bq                  0.22105  -0.85038   3.86894 
 1-Bq                  0.76944   0.05101   2.40058 
 1-Bq                  0.00636   0.94255   3.77614 
 
                    Distance matrix (angstroms):
                    1          2          3          4          5
     1  C    0.000000
     2  H    1.107243   0.000000
     3  H    1.107242   1.808119   0.000000
     4  H    1.107243   1.808119   1.808119   0.000000
     5  H    1.107243   1.808119   1.808119   1.808119   0.000000
     6  C    3.195160   3.366023   2.867314   2.837082   4.259050
     7  H    2.914497   3.440601   2.440837   2.515353   3.841705
     8  H    3.967458   4.043537   3.419259   3.815430   5.026709
     9  H    2.521395   2.408499   2.416928   2.351202   3.628099
    10  H    3.892004   4.029341   3.781448   3.269163   4.926699
                    6          7          8          9         10
     6  C    0.000000
     7  H    1.107243   0.000000
     8  H    1.107243   1.808119   0.000000
     9  H    1.107242   1.808119   1.808119   0.000000
    10  H    1.107242   1.808119   1.808119   1.808119   0.000000
 Symmetry turned off by external request.
 Rotational constants (GHZ):     76.6916055      5.7155390      5.7155390
   276 basis functions,   360 primitive gaussians,   310 cartesian basis functions
     5 alpha electrons        5 beta electrons
       nuclear repulsion energy        13.2261669889 Hartrees.
 IMHF & INEx in M05                  614413                  385587
 NAtoms=   10 NActive=   10 NUniq=   10 SFac= 1.00D+00 NAtFMM=   60 NAOKFM=F Big=F
 ExpMin= 2.53D-02 ExpMax= 8.24D+03 ExpMxC= 2.81D+02 IAcc=3 IRadAn=         5 AccDes= 0.00D+00
 Harris functional with IExCor= 1009 and IRadAn=       5 diagonalized for initial guess.
 HarFok:  IExCor= 1009 AccDes= 0.00D+00 IRadAn=         5 IDoV= 1 UseB2=F ITyADJ=14
 ICtDFT=  3500011 ScaDFX=  1.000000  1.000000  1.000000  1.000000
 FoFCou: FMM=F IPFlag=           0 FMFlag=      100000 FMFlg1=           0
         NFxFlg=           0 DoJE=T BraDBF=F KetDBF=T FulRan=T
         wScrn=  0.000000 ICntrl=     500 IOpCl=  0 I1Cent=   200000004 NGrid=           0
         NMat0=    1 NMatS0=      1 NMatT0=    0 NMatD0=    1 NMtDS0=    0 NMtDT0=    0
 Symmetry not used in FoFCou.
 SCF Done:  E(RM05) =  -40.9122676677     A.U. after    7 cycles
            NFock=  7  Conv=0.62D-08     -V/T= 2.0127

 **********************************************************************

            Population analysis using the SCF density.

 **********************************************************************

 Alpha  occ. eigenvalues --  -10.74532  -0.82768  -0.48752  -0.48752  -0.48751
 Alpha virt. eigenvalues --   -0.00120   0.02368   0.02743   0.02826   0.04648
 Alpha virt. eigenvalues --    0.05313   0.05730   0.06499   0.07974   0.09135
 Alpha virt. eigenvalues --    0.09964   0.10352   0.10831   0.11599   0.12555
 Alpha virt. eigenvalues --    0.13081   0.15652   0.16008   0.16770   0.18877
 Alpha virt. eigenvalues --    0.19853   0.23172   0.24143   0.24916   0.25509
 Alpha virt. eigenvalues --    0.26424   0.27062   0.27794   0.28371   0.28732
 Alpha virt. eigenvalues --    0.28887   0.29072   0.31303   0.32507   0.33137
 Alpha virt. eigenvalues --    0.33269   0.33462   0.35481   0.36625   0.37010
 Alpha virt. eigenvalues --    0.37107   0.37405   0.39097   0.40583   0.42505
 Alpha virt. eigenvalues --    0.43507   0.44002   0.44254   0.44920   0.46338
 Alpha virt. eigenvalues --    0.46407   0.50281   0.51786   0.52554   0.53249
 Alpha virt. eigenvalues --    0.54596   0.56669   0.57520   0.58879   0.62830
 Alpha virt. eigenvalues --    0.64804   0.65888   0.67008   0.67900   0.68146
 Alpha virt. eigenvalues --    0.73405   0.73950   0.74550   0.76714   0.77578
 Alpha virt. eigenvalues --    0.78675   0.79583   0.82207   0.83329   0.85971
 Alpha virt. eigenvalues --    0.86415   0.87927   0.90716   0.91868   0.93324
 Alpha virt. eigenvalues --    0.95515   0.97294   0.97657   0.97727   0.98142
 Alpha virt. eigenvalues --    0.99833   1.00390   1.00905   1.01488   1.01949
 Alpha virt. eigenvalues --    1.03666   1.04888   1.05366   1.05956   1.07314
 Alpha virt. eigenvalues --    1.08540   1.09350   1.10610   1.11500   1.12894
 Alpha virt. eigenvalues --    1.14025   1.15429   1.18482   1.20034   1.20763
 Alpha virt. eigenvalues --    1.23511   1.25323   1.27063   1.28430   1.29477
 Alpha virt. eigenvalues --    1.32102   1.34350   1.35947   1.36749   1.38425
 Alpha virt. eigenvalues --    1.39587   1.40551   1.43905   1.45120   1.45287
 Alpha virt. eigenvalues --    1.45654   1.48547   1.50283   1.50770   1.53740
 Alpha virt. eigenvalues --    1.56331   1.59630   1.61337   1.61904   1.63577
 Alpha virt. eigenvalues --    1.67761   1.68739   1.70020   1.73629   1.75411
 Alpha virt. eigenvalues --    1.76164   1.78381   1.80111   1.82831   1.84351
 Alpha virt. eigenvalues --    1.86281   1.88813   1.91450   1.92296   1.96446
 Alpha virt. eigenvalues --    1.99658   2.00271   2.01944   2.03426   2.04640
 Alpha virt. eigenvalues --    2.05260   2.06885   2.08379   2.09431   2.16265
 Alpha virt. eigenvalues --    2.22802   2.29090   2.32163   2.33224   2.42425
 Alpha virt. eigenvalues --    2.44264   2.48717   2.66961   2.67273   2.69965
 Alpha virt. eigenvalues --    2.80672   2.90730   2.91892   2.95455   2.99925
 Alpha virt. eigenvalues --    3.21604   3.26417   3.27632   3.28962   3.31185
 Alpha virt. eigenvalues --    3.31559   3.33000   3.44276   3.58493   3.59866
 Alpha virt. eigenvalues --    3.60343   3.72109   3.73141   3.74607   3.75378
 Alpha virt. eigenvalues --    3.79011   3.80374   3.82345   3.85030   3.86173
 Alpha virt. eigenvalues --    3.90222   3.96619   3.98728   4.01129   4.06654
 Alpha virt. eigenvalues --    4.08584   4.18250   4.18783   4.20139   4.21545
 Alpha virt. eigenvalues --    4.22406   4.28559   4.32125   4.34351   4.35301
 Alpha virt. eigenvalues --    4.37451   4.39313   4.40368   4.41002   4.44242
 Alpha virt. eigenvalues --    4.48558   4.49221   4.49976   4.50128   4.51708
 Alpha virt. eigenvalues --    4.54660   4.58542   4.59268   4.60339   4.64228
 Alpha virt. eigenvalues --    4.74703   4.79460   4.80725   4.81524   4.85284
 Alpha virt. eigenvalues --    4.86449   4.91199   4.91448   5.05137   5.12068
 Alpha virt. eigenvalues --    5.13923   5.16241   5.16598   5.18377   5.21541
 Alpha virt. eigenvalues --    5.24659   5.26385   5.28832   5.31598   5.33371
 Alpha virt. eigenvalues --    5.34755   5.37732   5.45195   5.46049   5.47638
 Alpha virt. eigenvalues --    5.49009   5.58326   5.60129   5.61125   5.63224
 Alpha virt. eigenvalues --    6.06758   6.08360   6.10340   6.11191   6.13606
 Alpha virt. eigenvalues --    6.20047   6.21063   6.21303   6.79149   6.82238
 Alpha virt. eigenvalues --    6.86065   6.99189   7.60518   7.64375   7.67038
 Alpha virt. eigenvalues --    8.03163   8.05115   8.15310  10.28288  17.07752
 Alpha virt. eigenvalues --   52.47230
          Condensed to atoms (all electrons):
 Mulliken charges:
               1
     1  C   -1.949823
     2  H    0.502560
     3  H    0.497214
     4  H    0.503140
     5  H    0.436090
     6  C    0.010104
     7  H    0.006206
     8  H    0.001896
     9  H   -0.010569
    10  H    0.003182
 Sum of Mulliken charges =  -0.00000
 Mulliken charges with hydrogens summed into heavy atoms:
               1
     1  C   -0.010820
     6  C    0.010820
 Electronic spatial extent (au):  <R**2>=             36.5419
 Charge=             -0.0000 electrons
 Dipole moment (field-independent basis, Debye):
    X=              0.0002    Y=              0.0000    Z=              0.0001  Tot=              0.0002

 Test job not archived.
 1\1\GINC-CHIMERA-NODE41\SP\RM05\Gen\C2H8\CONNORNM\05-Dec-2018\0\\#T M0
 5/Gen test Massage Symmetry=None SCF=(tight,maxcyc=60)\\M05 opt\\0,1\C
 ,0,0.,0.,0.\H,0,1.10712075,0.,0.01641951\H,0,-0.3765795,-0.91175032,0.
 50287691\H,0,-0.37697974,0.89616766,0.52986391\H,0,-0.35356151,0.01558
 267,-1.04916033\C,0,0.,0.,3.19516047\H,0,-0.9968512,-0.14318445,2.7349
 737\H,0,0.22105294,-0.85037581,3.86894274\H,0,0.76943534,0.05100768,2.
 40058296\H,0,0.00636291,0.94255257,3.7761425\\Version=AS64L-G09RevD.01
 \HF=-40.9122677\RMSD=6.224e-09\Dipole=0.0000726,0.0000006,0.0000386\Qu
 adrupole=-0.0010732,0.000184,0.0008892,-0.0000623,0.0001427,0.0000282\
 PG=Unknown\\@


 10 WHATSOEVER THY HAND FINDETH TO DO, DO IT WITH THY  
 MIGHT. FOR THERE IS NO WORK, NOR DEVICE, NOR KNOWLEDGE, NOR  
 WISDOM, IN THE GRAVE, WHITHER THOU GOEST.                    
 11 I RETURNED AND SAW UNDER THE SUN, THAT THE RACE IS NOT TO 
 THE SWIFT, NOR THE BATTLE TO THE STRONG, NEITHER YET BREAD TO
 THE WISE, NOR YET RICHES TO MEN OF UNDERSTANDING, NOR YET    
 FAVOR TO MEN OF SKILL. BUT TIME AND CHANCE HAPPEN TO THEM ALL.
 12 FOR MAN ALSO KNOWETH NOT HIS TIME. AS THE FISHES   
 THAT ARE TAKEN IN AN EVIL NET, AND AS THE BIRDS THAT ARE     
 CAUGHT IN THE SNARE. SO ARE THE SONS OF MEN SNARED IN AN EVIL
 TIME, WHEN IT FALLETH SUDDENLY UPON THEM.
                                         ECCLESIASTES 9
 Job cpu time:       0 days  0 hours 12 minutes 44.8 seconds.
 File lengths (MBytes):  RWF=     41 Int=      0 D2E=      0 Chk=      4 Scr=      1
 Normal termination of Gaussian 09 at Wed Dec  5 21:54:35 2018.
