 Entering Gaussian System, Link 0=/data/szalewicgrp/connornm/opt/Gaussian/g09-M05-par/g09/g09
 AtFile(1): aug-cc-pVTZ.gbs
 Initial command:
 /data/szalewicgrp/connornm/opt/Gaussian/g09-M05-par/g09/l1.exe "/scratch/local/Gau-8109.inp" -scrdir="/scratch/local/"
 Entering Link 1 = /data/szalewicgrp/connornm/opt/Gaussian/g09-M05-par/g09/l1.exe PID=      8110.
  
 Copyright (c) 1988,1990,1992,1993,1995,1998,2003,2009,2013,
            Gaussian, Inc.  All Rights Reserved.
  
 This is part of the Gaussian(R) 09 program.  It is based on
 the Gaussian(R) 03 system (copyright 2003, Gaussian, Inc.),
 the Gaussian(R) 98 system (copyright 1998, Gaussian, Inc.),
 the Gaussian(R) 94 system (copyright 1995, Gaussian, Inc.),
 the Gaussian 92(TM) system (copyright 1992, Gaussian, Inc.),
 the Gaussian 90(TM) system (copyright 1990, Gaussian, Inc.),
 the Gaussian 88(TM) system (copyright 1988, Gaussian, Inc.),
 the Gaussian 86(TM) system (copyright 1986, Carnegie Mellon
 University), and the Gaussian 82(TM) system (copyright 1983,
 Carnegie Mellon University). Gaussian is a federally registered
 trademark of Gaussian, Inc.
  
 This software contains proprietary and confidential information,
 including trade secrets, belonging to Gaussian, Inc.
  
 This software is provided under written license and may be
 used, copied, transmitted, or stored only in accord with that
 written license.
  
 The following legend is applicable only to US Government
 contracts under FAR:
  
                    RESTRICTED RIGHTS LEGEND
  
 Use, reproduction and disclosure by the US Government is
 subject to restrictions as set forth in subparagraphs (a)
 and (c) of the Commercial Computer Software - Restricted
 Rights clause in FAR 52.227-19.
  
 Gaussian, Inc.
 340 Quinnipiac St., Bldg. 40, Wallingford CT 06492
  
  
 ---------------------------------------------------------------
 Warning -- This program may not be used in any manner that
 competes with the business of Gaussian, Inc. or will provide
 assistance to any competitor of Gaussian, Inc.  The licensee
 of this program is prohibited from giving any competitor of
 Gaussian, Inc. access to this program.  By using this program,
 the user acknowledges that Gaussian, Inc. is engaged in the
 business of creating and licensing software in the field of
 computational chemistry and represents and warrants to the
 licensee that it is not a competitor of Gaussian, Inc. and that
 it will not use this program in any manner prohibited above.
 ---------------------------------------------------------------
  

 Cite this work as:
 Gaussian 09, Revision D.01,
 M. J. Frisch, G. W. Trucks, H. B. Schlegel, G. E. Scuseria, 
 M. A. Robb, J. R. Cheeseman, G. Scalmani, V. Barone, B. Mennucci, 
 G. A. Petersson, H. Nakatsuji, M. Caricato, X. Li, H. P. Hratchian, 
 A. F. Izmaylov, J. Bloino, G. Zheng, J. L. Sonnenberg, M. Hada, 
 M. Ehara, K. Toyota, R. Fukuda, J. Hasegawa, M. Ishida, T. Nakajima, 
 Y. Honda, O. Kitao, H. Nakai, T. Vreven, J. A. Montgomery, Jr., 
 J. E. Peralta, F. Ogliaro, M. Bearpark, J. J. Heyd, E. Brothers, 
 K. N. Kudin, V. N. Staroverov, T. Keith, R. Kobayashi, J. Normand, 
 K. Raghavachari, A. Rendell, J. C. Burant, S. S. Iyengar, J. Tomasi, 
 M. Cossi, N. Rega, J. M. Millam, M. Klene, J. E. Knox, J. B. Cross, 
 V. Bakken, C. Adamo, J. Jaramillo, R. Gomperts, R. E. Stratmann, 
 O. Yazyev, A. J. Austin, R. Cammi, C. Pomelli, J. W. Ochterski, 
 R. L. Martin, K. Morokuma, V. G. Zakrzewski, G. A. Voth, 
 P. Salvador, J. J. Dannenberg, S. Dapprich, A. D. Daniels, 
 O. Farkas, J. B. Foresman, J. V. Ortiz, J. Cioslowski, 
 and D. J. Fox, Gaussian, Inc., Wallingford CT, 2013.
 
 ******************************************
 Gaussian 09:  AS64L-G09RevD.01 24-Apr-2013
                 5-Dec-2018 
 ******************************************
 %Chk=CH400157
 %Mem=2GB
 %NProcShared=16
 Will use up to   16 processors via shared memory.
 -----------------------------------------------------------
 #T M05/Gen test Massage Symmetry=None SCF=(tight,maxcyc=60)
 -----------------------------------------------------------
 -------
 M05 opt
 -------
 Symbolic Z-matrix:
 Charge =  0 Multiplicity = 1
 6                     0.        0.        0. 
 1                     1.10583   0.        0.05582 
 1                    -0.37691  -1.03087   0.14574 
 1                    -0.40947   0.65794   0.79084 
 1                    -0.31946   0.37292  -0.9924 
 6-Bq                  0.        0.        2.93934 
 1-Bq                 -0.88161   0.63808   3.14331 
 1-Bq                  0.67643   0.51979   2.23348 
 1-Bq                  0.53779  -0.20013   3.88629 
 1-Bq                 -0.33261  -0.95774   2.49428 
 
                    Distance matrix (angstroms):
                    1          2          3          4          5
     1  C    0.000000
     2  H    1.107243   0.000000
     3  H    1.107243   1.808119   0.000000
     4  H    1.107243   1.808119   1.808119   0.000000
     5  H    1.107243   1.808119   1.808119   1.808119   0.000000
     6  C    2.939340   3.088294   3.001491   2.283987   3.962287
     7  H    3.326380   3.726889   3.467789   2.399465   4.182161
     8  H    2.390850   2.279640   2.805835   1.810931   3.379299
     9  H    3.928427   3.877531   3.939357   3.348939   4.986473
    10  H    2.692456   2.988725   2.350092   2.349050   3.731993
                    6          7          8          9         10
     6  C    0.000000
     7  H    1.107242   0.000000
     8  H    1.107243   1.808119   0.000000
     9  H    1.107243   1.808119   1.808119   0.000000
    10  H    1.107242   1.808119   1.808119   1.808119   0.000000
 Symmetry turned off by external request.
 Rotational constants (GHZ):     76.6916055      6.6635130      6.6635130
   276 basis functions,   360 primitive gaussians,   310 cartesian basis functions
     5 alpha electrons        5 beta electrons
       nuclear repulsion energy        13.2261669689 Hartrees.
 IMHF & INEx in M05                  614413                  385587
 NAtoms=   10 NActive=   10 NUniq=   10 SFac= 1.00D+00 NAtFMM=   60 NAOKFM=F Big=F
 ExpMin= 2.53D-02 ExpMax= 8.24D+03 ExpMxC= 2.81D+02 IAcc=3 IRadAn=         5 AccDes= 0.00D+00
 Harris functional with IExCor= 1009 and IRadAn=       5 diagonalized for initial guess.
 HarFok:  IExCor= 1009 AccDes= 0.00D+00 IRadAn=         5 IDoV= 1 UseB2=F ITyADJ=14
 ICtDFT=  3500011 ScaDFX=  1.000000  1.000000  1.000000  1.000000
 FoFCou: FMM=F IPFlag=           0 FMFlag=      100000 FMFlg1=           0
         NFxFlg=           0 DoJE=T BraDBF=F KetDBF=T FulRan=T
         wScrn=  0.000000 ICntrl=     500 IOpCl=  0 I1Cent=   200000004 NGrid=           0
         NMat0=    1 NMatS0=      1 NMatT0=    0 NMatD0=    1 NMtDS0=    0 NMtDT0=    0
 Symmetry not used in FoFCou.
 SCF Done:  E(RM05) =  -40.9122784018     A.U. after    7 cycles
            NFock=  7  Conv=0.59D-08     -V/T= 2.0127

 **********************************************************************

            Population analysis using the SCF density.

 **********************************************************************

 Alpha  occ. eigenvalues --  -10.74532  -0.82768  -0.48753  -0.48752  -0.48752
 Alpha virt. eigenvalues --   -0.00119   0.02406   0.02806   0.02917   0.04618
 Alpha virt. eigenvalues --    0.05388   0.05563   0.07368   0.08087   0.08533
 Alpha virt. eigenvalues --    0.09378   0.10802   0.10968   0.11693   0.13095
 Alpha virt. eigenvalues --    0.13201   0.15067   0.16090   0.17328   0.18523
 Alpha virt. eigenvalues --    0.21609   0.22066   0.22931   0.25158   0.26446
 Alpha virt. eigenvalues --    0.26542   0.27298   0.28130   0.28443   0.28622
 Alpha virt. eigenvalues --    0.29366   0.30821   0.31313   0.32442   0.32641
 Alpha virt. eigenvalues --    0.33949   0.34946   0.35724   0.36090   0.36467
 Alpha virt. eigenvalues --    0.37199   0.39015   0.39425   0.41097   0.42666
 Alpha virt. eigenvalues --    0.43182   0.44873   0.45316   0.46267   0.47338
 Alpha virt. eigenvalues --    0.47778   0.48133   0.50675   0.51990   0.54166
 Alpha virt. eigenvalues --    0.55447   0.56242   0.58900   0.60558   0.62576
 Alpha virt. eigenvalues --    0.64204   0.64802   0.66135   0.67484   0.69233
 Alpha virt. eigenvalues --    0.71505   0.74297   0.74569   0.77506   0.77840
 Alpha virt. eigenvalues --    0.78107   0.82325   0.84480   0.85132   0.86358
 Alpha virt. eigenvalues --    0.87306   0.87783   0.90923   0.91952   0.94003
 Alpha virt. eigenvalues --    0.95293   0.96436   0.97446   0.97661   0.99010
 Alpha virt. eigenvalues --    1.00464   1.01021   1.02285   1.03192   1.03591
 Alpha virt. eigenvalues --    1.04024   1.05205   1.05596   1.07720   1.08901
 Alpha virt. eigenvalues --    1.09621   1.10550   1.11505   1.12477   1.13497
 Alpha virt. eigenvalues --    1.14758   1.16929   1.18292   1.20781   1.21514
 Alpha virt. eigenvalues --    1.23803   1.25280   1.26377   1.28349   1.30661
 Alpha virt. eigenvalues --    1.33063   1.34719   1.36290   1.36414   1.39223
 Alpha virt. eigenvalues --    1.39636   1.42655   1.43608   1.45130   1.47493
 Alpha virt. eigenvalues --    1.48971   1.51243   1.53039   1.54275   1.57174
 Alpha virt. eigenvalues --    1.57347   1.60476   1.62094   1.64059   1.66449
 Alpha virt. eigenvalues --    1.67300   1.68712   1.71542   1.74408   1.76474
 Alpha virt. eigenvalues --    1.80619   1.81944   1.83452   1.85230   1.86767
 Alpha virt. eigenvalues --    1.88075   1.91006   1.94470   1.94910   1.98136
 Alpha virt. eigenvalues --    1.98335   1.99233   2.00551   2.03197   2.04030
 Alpha virt. eigenvalues --    2.07172   2.10070   2.13406   2.17916   2.19060
 Alpha virt. eigenvalues --    2.20640   2.29746   2.33861   2.38110   2.44606
 Alpha virt. eigenvalues --    2.47476   2.48537   2.65378   2.66435   2.69817
 Alpha virt. eigenvalues --    2.80579   2.88487   2.95651   2.96831   3.04006
 Alpha virt. eigenvalues --    3.23374   3.27939   3.29561   3.31999   3.33298
 Alpha virt. eigenvalues --    3.36741   3.40822   3.42122   3.58308   3.61607
 Alpha virt. eigenvalues --    3.62638   3.72378   3.74382   3.75487   3.76068
 Alpha virt. eigenvalues --    3.78504   3.82251   3.85421   3.86862   3.88784
 Alpha virt. eigenvalues --    3.89822   3.96114   4.02308   4.05053   4.09290
 Alpha virt. eigenvalues --    4.11923   4.17162   4.20026   4.21784   4.22451
 Alpha virt. eigenvalues --    4.24881   4.27246   4.30298   4.32839   4.34147
 Alpha virt. eigenvalues --    4.36915   4.38215   4.41714   4.43568   4.45259
 Alpha virt. eigenvalues --    4.46574   4.49113   4.49843   4.51776   4.54067
 Alpha virt. eigenvalues --    4.56124   4.58313   4.61891   4.65435   4.73240
 Alpha virt. eigenvalues --    4.77566   4.80146   4.81685   4.85641   4.87391
 Alpha virt. eigenvalues --    4.88502   4.92493   4.93728   5.07396   5.08890
 Alpha virt. eigenvalues --    5.15021   5.16688   5.17918   5.23337   5.23912
 Alpha virt. eigenvalues --    5.24364   5.27045   5.29485   5.32569   5.34862
 Alpha virt. eigenvalues --    5.35766   5.42674   5.45365   5.49795   5.50233
 Alpha virt. eigenvalues --    5.53170   5.57519   5.65254   5.67512   5.68526
 Alpha virt. eigenvalues --    6.07582   6.08650   6.09415   6.12745   6.14926
 Alpha virt. eigenvalues --    6.16610   6.19911   6.21755   6.77528   6.80231
 Alpha virt. eigenvalues --    6.83003   6.95229   7.59759   7.60315   7.64784
 Alpha virt. eigenvalues --    8.02196   8.05845   8.10020  10.34616  17.03037
 Alpha virt. eigenvalues --   52.61845
          Condensed to atoms (all electrons):
 Mulliken charges:
               1
     1  C   -1.934249
     2  H    0.484599
     3  H    0.478644
     4  H    0.554114
     5  H    0.393471
     6  C   -0.006580
     7  H    0.004438
     8  H    0.019692
     9  H   -0.004426
    10  H    0.010298
 Sum of Mulliken charges =  -0.00000
 Mulliken charges with hydrogens summed into heavy atoms:
               1
     1  C   -0.023421
     6  C    0.023421
 Electronic spatial extent (au):  <R**2>=             36.5415
 Charge=             -0.0000 electrons
 Dipole moment (field-independent basis, Debye):
    X=             -0.0000    Y=             -0.0000    Z=              0.0000  Tot=              0.0000

 Test job not archived.
 1\1\GINC-CHIMERA-NODE56\SP\RM05\Gen\C2H8\CONNORNM\05-Dec-2018\0\\#T M0
 5/Gen test Massage Symmetry=None SCF=(tight,maxcyc=60)\\M05 opt\\0,1\C
 ,0,0.,0.,0.\H,0,1.10583458,0.,0.05581973\H,0,-0.3769073,-1.03086705,0.
 14573941\H,0,-0.40947046,0.65794253,0.79084229\H,0,-0.31945683,0.37292
 452,-0.99240143\C,0,0.,0.,2.93934005\H,0,-0.88160907,0.63807987,3.1433
 1425\H,0,0.67643454,0.51978855,2.23347736\H,0,0.53778918,-0.2001254,3.
 88629231\H,0,-0.33261464,-0.95774302,2.49427629\\Version=AS64L-G09RevD
 .01\HF=-40.9122784\RMSD=5.877e-09\Dipole=-0.0000014,-0.0000044,0.00001
 2\Quadrupole=-0.000602,0.0000855,0.0005165,-0.0006021,0.0004298,-0.000
 2616\PG=Unknown\\@


 I DON'T EXACTLY UNDERSTAND WHAT YOU ARE SAYING,
 BUT YOU ARE ABSOLUTELY RIGHT.
     M.S.GORDON, IN A NDSU FACULTY MEETING
 Job cpu time:       0 days  0 hours 13 minutes 12.0 seconds.
 File lengths (MBytes):  RWF=     41 Int=      0 D2E=      0 Chk=      4 Scr=      1
 Normal termination of Gaussian 09 at Wed Dec  5 21:54:37 2018.
