 Entering Gaussian System, Link 0=/data/szalewicgrp/connornm/opt/Gaussian/g09-M05-par/g09/g09
 AtFile(1): aug-cc-pVTZ.gbs
 Initial command:
 /data/szalewicgrp/connornm/opt/Gaussian/g09-M05-par/g09/l1.exe "/scratch/local/Gau-16862.inp" -scrdir="/scratch/local/"
 Entering Link 1 = /data/szalewicgrp/connornm/opt/Gaussian/g09-M05-par/g09/l1.exe PID=     16864.
  
 Copyright (c) 1988,1990,1992,1993,1995,1998,2003,2009,2013,
            Gaussian, Inc.  All Rights Reserved.
  
 This is part of the Gaussian(R) 09 program.  It is based on
 the Gaussian(R) 03 system (copyright 2003, Gaussian, Inc.),
 the Gaussian(R) 98 system (copyright 1998, Gaussian, Inc.),
 the Gaussian(R) 94 system (copyright 1995, Gaussian, Inc.),
 the Gaussian 92(TM) system (copyright 1992, Gaussian, Inc.),
 the Gaussian 90(TM) system (copyright 1990, Gaussian, Inc.),
 the Gaussian 88(TM) system (copyright 1988, Gaussian, Inc.),
 the Gaussian 86(TM) system (copyright 1986, Carnegie Mellon
 University), and the Gaussian 82(TM) system (copyright 1983,
 Carnegie Mellon University). Gaussian is a federally registered
 trademark of Gaussian, Inc.
  
 This software contains proprietary and confidential information,
 including trade secrets, belonging to Gaussian, Inc.
  
 This software is provided under written license and may be
 used, copied, transmitted, or stored only in accord with that
 written license.
  
 The following legend is applicable only to US Government
 contracts under FAR:
  
                    RESTRICTED RIGHTS LEGEND
  
 Use, reproduction and disclosure by the US Government is
 subject to restrictions as set forth in subparagraphs (a)
 and (c) of the Commercial Computer Software - Restricted
 Rights clause in FAR 52.227-19.
  
 Gaussian, Inc.
 340 Quinnipiac St., Bldg. 40, Wallingford CT 06492
  
  
 ---------------------------------------------------------------
 Warning -- This program may not be used in any manner that
 competes with the business of Gaussian, Inc. or will provide
 assistance to any competitor of Gaussian, Inc.  The licensee
 of this program is prohibited from giving any competitor of
 Gaussian, Inc. access to this program.  By using this program,
 the user acknowledges that Gaussian, Inc. is engaged in the
 business of creating and licensing software in the field of
 computational chemistry and represents and warrants to the
 licensee that it is not a competitor of Gaussian, Inc. and that
 it will not use this program in any manner prohibited above.
 ---------------------------------------------------------------
  

 Cite this work as:
 Gaussian 09, Revision D.01,
 M. J. Frisch, G. W. Trucks, H. B. Schlegel, G. E. Scuseria, 
 M. A. Robb, J. R. Cheeseman, G. Scalmani, V. Barone, B. Mennucci, 
 G. A. Petersson, H. Nakatsuji, M. Caricato, X. Li, H. P. Hratchian, 
 A. F. Izmaylov, J. Bloino, G. Zheng, J. L. Sonnenberg, M. Hada, 
 M. Ehara, K. Toyota, R. Fukuda, J. Hasegawa, M. Ishida, T. Nakajima, 
 Y. Honda, O. Kitao, H. Nakai, T. Vreven, J. A. Montgomery, Jr., 
 J. E. Peralta, F. Ogliaro, M. Bearpark, J. J. Heyd, E. Brothers, 
 K. N. Kudin, V. N. Staroverov, T. Keith, R. Kobayashi, J. Normand, 
 K. Raghavachari, A. Rendell, J. C. Burant, S. S. Iyengar, J. Tomasi, 
 M. Cossi, N. Rega, J. M. Millam, M. Klene, J. E. Knox, J. B. Cross, 
 V. Bakken, C. Adamo, J. Jaramillo, R. Gomperts, R. E. Stratmann, 
 O. Yazyev, A. J. Austin, R. Cammi, C. Pomelli, J. W. Ochterski, 
 R. L. Martin, K. Morokuma, V. G. Zakrzewski, G. A. Voth, 
 P. Salvador, J. J. Dannenberg, S. Dapprich, A. D. Daniels, 
 O. Farkas, J. B. Foresman, J. V. Ortiz, J. Cioslowski, 
 and D. J. Fox, Gaussian, Inc., Wallingford CT, 2013.
 
 ******************************************
 Gaussian 09:  AS64L-G09RevD.01 24-Apr-2013
                 6-Dec-2018 
 ******************************************
 %Chk=CH400167
 %Mem=2GB
 %NProcShared=16
 Will use up to   16 processors via shared memory.
 -----------------------------------------------------------
 #T M05/Gen test Massage Symmetry=None SCF=(tight,maxcyc=60)
 -----------------------------------------------------------
 -------
 M05 opt
 -------
 Symbolic Z-matrix:
 Charge =  0 Multiplicity = 1
 6                     0.        0.        0. 
 1                     0.4983    0.       -0.98878 
 1                    -0.83866  -0.72287  -0.00935 
 1                     0.72923  -0.2908    0.7808 
 1                    -0.38887   1.01367   0.21733 
 6-Bq                  0.        0.        3.57396 
 1-Bq                  0.09209  -0.97338   3.05431 
 1-Bq                 -0.45648   0.74168   2.89021 
 1-Bq                 -0.63982  -0.11893   4.46977 
 1-Bq                  1.0042    0.35063   3.88156 
 
                    Distance matrix (angstroms):
                    1          2          3          4          5
     1  C    0.000000
     2  H    1.107242   0.000000
     3  H    1.107242   1.808119   0.000000
     4  H    1.107243   1.808119   1.808119   0.000000
     5  H    1.107243   1.808119   1.808119   1.808119   0.000000
     6  C    3.573960   4.589868   3.750464   2.901396   3.527850
     7  H    3.206984   4.178401   3.211703   2.457786   3.496879
     8  H    3.018568   4.063030   3.270839   2.630880   2.687531
     9  H    4.516896   5.577204   4.524020   3.938571   4.407837
    10  H    4.024656   4.909079   4.437082   3.178326   3.975782
                    6          7          8          9         10
     6  C    0.000000
     7  H    1.107242   0.000000
     8  H    1.107242   1.808119   0.000000
     9  H    1.107243   1.808119   1.808119   0.000000
    10  H    1.107243   1.808119   1.808119   1.808119   0.000000
 Symmetry turned off by external request.
 Rotational constants (GHZ):     76.6916055      4.6375608      4.6375608
   276 basis functions,   360 primitive gaussians,   310 cartesian basis functions
     5 alpha electrons        5 beta electrons
       nuclear repulsion energy        13.2261670034 Hartrees.
 IMHF & INEx in M05                  614413                  385587
 NAtoms=   10 NActive=   10 NUniq=   10 SFac= 1.00D+00 NAtFMM=   60 NAOKFM=F Big=F
 ExpMin= 2.53D-02 ExpMax= 8.24D+03 ExpMxC= 2.81D+02 IAcc=3 IRadAn=         5 AccDes= 0.00D+00
 Harris functional with IExCor= 1009 and IRadAn=       5 diagonalized for initial guess.
 HarFok:  IExCor= 1009 AccDes= 0.00D+00 IRadAn=         5 IDoV= 1 UseB2=F ITyADJ=14
 ICtDFT=  3500011 ScaDFX=  1.000000  1.000000  1.000000  1.000000
 FoFCou: FMM=F IPFlag=           0 FMFlag=      100000 FMFlg1=           0
         NFxFlg=           0 DoJE=T BraDBF=F KetDBF=T FulRan=T
         wScrn=  0.000000 ICntrl=     500 IOpCl=  0 I1Cent=   200000004 NGrid=           0
         NMat0=    1 NMatS0=      1 NMatT0=    0 NMatD0=    1 NMtDS0=    0 NMtDT0=    0
 Symmetry not used in FoFCou.
 SCF Done:  E(RM05) =  -40.9122454800     A.U. after    7 cycles
            NFock=  7  Conv=0.47D-08     -V/T= 2.0127

 **********************************************************************

            Population analysis using the SCF density.

 **********************************************************************

 Alpha  occ. eigenvalues --  -10.74530  -0.82768  -0.48752  -0.48751  -0.48751
 Alpha virt. eigenvalues --   -0.00116   0.02358   0.02774   0.02914   0.04432
 Alpha virt. eigenvalues --    0.05286   0.05436   0.07131   0.08073   0.08666
 Alpha virt. eigenvalues --    0.09582   0.10438   0.10910   0.11614   0.12704
 Alpha virt. eigenvalues --    0.12993   0.15079   0.16018   0.16634   0.17888
 Alpha virt. eigenvalues --    0.20367   0.22342   0.23479   0.24692   0.25881
 Alpha virt. eigenvalues --    0.26734   0.27072   0.27724   0.28026   0.28435
 Alpha virt. eigenvalues --    0.28725   0.29753   0.30719   0.31429   0.31898
 Alpha virt. eigenvalues --    0.32669   0.33925   0.35082   0.35304   0.36295
 Alpha virt. eigenvalues --    0.36933   0.37342   0.38125   0.39285   0.41447
 Alpha virt. eigenvalues --    0.42377   0.42941   0.44180   0.44788   0.45550
 Alpha virt. eigenvalues --    0.47063   0.48529   0.49249   0.50449   0.53369
 Alpha virt. eigenvalues --    0.54757   0.56011   0.57726   0.59583   0.61423
 Alpha virt. eigenvalues --    0.63677   0.64655   0.65716   0.66360   0.68524
 Alpha virt. eigenvalues --    0.70480   0.73833   0.74121   0.77128   0.77724
 Alpha virt. eigenvalues --    0.78634   0.80275   0.84004   0.84090   0.85802
 Alpha virt. eigenvalues --    0.86622   0.89350   0.90831   0.91325   0.92629
 Alpha virt. eigenvalues --    0.93254   0.94130   0.96047   0.96851   0.98177
 Alpha virt. eigenvalues --    0.98859   0.99305   1.00069   1.01530   1.02020
 Alpha virt. eigenvalues --    1.03014   1.03956   1.04611   1.05184   1.06099
 Alpha virt. eigenvalues --    1.07079   1.08360   1.08860   1.10450   1.11286
 Alpha virt. eigenvalues --    1.12281   1.13548   1.14460   1.16336   1.18123
 Alpha virt. eigenvalues --    1.19449   1.20907   1.21622   1.25421   1.25632
 Alpha virt. eigenvalues --    1.27502   1.31517   1.32882   1.33574   1.35502
 Alpha virt. eigenvalues --    1.36566   1.38477   1.39372   1.42942   1.43336
 Alpha virt. eigenvalues --    1.44880   1.45970   1.47552   1.48634   1.49450
 Alpha virt. eigenvalues --    1.51893   1.53501   1.57593   1.62171   1.62468
 Alpha virt. eigenvalues --    1.65089   1.67425   1.68447   1.69902   1.71856
 Alpha virt. eigenvalues --    1.76298   1.77446   1.79395   1.82656   1.83669
 Alpha virt. eigenvalues --    1.84526   1.88064   1.90155   1.91590   1.94174
 Alpha virt. eigenvalues --    1.96362   1.98284   1.99553   2.00773   2.02710
 Alpha virt. eigenvalues --    2.05298   2.06200   2.08215   2.09817   2.13307
 Alpha virt. eigenvalues --    2.18122   2.28478   2.29750   2.35880   2.41908
 Alpha virt. eigenvalues --    2.45605   2.48116   2.66393   2.67855   2.69617
 Alpha virt. eigenvalues --    2.75091   2.81357   2.91273   2.92522   2.94707
 Alpha virt. eigenvalues --    3.21744   3.23665   3.24426   3.25679   3.28400
 Alpha virt. eigenvalues --    3.30347   3.31270   3.34927   3.58048   3.60057
 Alpha virt. eigenvalues --    3.60409   3.69702   3.72441   3.73654   3.75084
 Alpha virt. eigenvalues --    3.76778   3.77866   3.81422   3.83067   3.84619
 Alpha virt. eigenvalues --    3.86569   3.97300   3.99003   4.01916   4.03159
 Alpha virt. eigenvalues --    4.08362   4.11690   4.18240   4.19283   4.20743
 Alpha virt. eigenvalues --    4.21514   4.24194   4.32876   4.33728   4.33983
 Alpha virt. eigenvalues --    4.36230   4.37499   4.38606   4.41313   4.42976
 Alpha virt. eigenvalues --    4.46492   4.47073   4.49445   4.50554   4.52098
 Alpha virt. eigenvalues --    4.53624   4.56145   4.57572   4.60919   4.62938
 Alpha virt. eigenvalues --    4.66844   4.75394   4.78500   4.80289   4.80810
 Alpha virt. eigenvalues --    4.81786   4.89837   4.92173   4.94114   5.11621
 Alpha virt. eigenvalues --    5.13569   5.15790   5.16549   5.17860   5.19338
 Alpha virt. eigenvalues --    5.24168   5.26829   5.27816   5.30272   5.32448
 Alpha virt. eigenvalues --    5.33632   5.38724   5.43323   5.45921   5.47700
 Alpha virt. eigenvalues --    5.48800   5.52144   5.58635   5.59227   5.62566
 Alpha virt. eigenvalues --    6.05872   6.07511   6.09445   6.11673   6.13539
 Alpha virt. eigenvalues --    6.14293   6.21229   6.21658   6.79097   6.79707
 Alpha virt. eigenvalues --    6.82371   6.95965   7.61746   7.63386   7.66013
 Alpha virt. eigenvalues --    8.02865   8.03578   8.07317  10.29311  16.80275
 Alpha virt. eigenvalues --   52.29238
          Condensed to atoms (all electrons):
 Mulliken charges:
               1
     1  C   -1.885472
     2  H    0.414687
     3  H    0.477625
     4  H    0.510507
     5  H    0.472794
     6  C    0.007135
     7  H    0.000112
     8  H    0.001461
     9  H    0.000165
    10  H    0.000986
 Sum of Mulliken charges =  -0.00000
 Mulliken charges with hydrogens summed into heavy atoms:
               1
     1  C   -0.009859
     6  C    0.009859
 Electronic spatial extent (au):  <R**2>=             36.5421
 Charge=             -0.0000 electrons
 Dipole moment (field-independent basis, Debye):
    X=              0.0000    Y=             -0.0000    Z=              0.0000  Tot=              0.0001

 Test job not archived.
 1\1\GINC-CHIMERA-NODE60\SP\RM05\Gen\C2H8\CONNORNM\06-Dec-2018\0\\#T M0
 5/Gen test Massage Symmetry=None SCF=(tight,maxcyc=60)\\M05 opt\\0,1\C
 ,0,0.,0.,0.\H,0,0.49829827,0.,-0.98877944\H,0,-0.83866123,-0.72287339,
 -0.00934633\H,0,0.72923007,-0.29080138,0.78079704\H,0,-0.38886711,1.01
 367478,0.21732873\C,0,0.,0.,3.57395997\H,0,0.0920915,-0.97337945,3.054
 3086\H,0,-0.45647888,0.74168221,2.89020528\H,0,-0.63981758,-0.11893433
 ,4.46976913\H,0,1.00420496,0.35063157,3.88155689\\Version=AS64L-G09Rev
 D.01\HF=-40.9122455\RMSD=4.696e-09\Dipole=0.0000181,-0.0000181,0.00000
 59\Quadrupole=0.0004754,-0.0008044,0.000329,-0.0005775,-0.0006417,-0.0
 001444\PG=Unknown\\@


 WHERE THERE IS MUCH DESIRE TO LEARN, THERE OF NECESSITY WILL BE
 MUCH ARGUING, MUCH WRITING, MANY OPINIONS; FOR OPINION IN GOOD MEN
 IS BUT KNOWLEDGE IN THE MAKING. -- JOHN MILTON.
 Job cpu time:       0 days  0 hours 12 minutes  9.8 seconds.
 File lengths (MBytes):  RWF=     41 Int=      0 D2E=      0 Chk=      4 Scr=      1
 Normal termination of Gaussian 09 at Thu Dec  6 13:20:43 2018.
