 Entering Gaussian System, Link 0=/data/szalewicgrp/connornm/opt/Gaussian/g09-M05-par/g09/g09
 AtFile(1): aug-cc-pVTZ.gbs
 Initial command:
 /data/szalewicgrp/connornm/opt/Gaussian/g09-M05-par/g09/l1.exe "/scratch/local/Gau-29443.inp" -scrdir="/scratch/local/"
 Entering Link 1 = /data/szalewicgrp/connornm/opt/Gaussian/g09-M05-par/g09/l1.exe PID=     29444.
  
 Copyright (c) 1988,1990,1992,1993,1995,1998,2003,2009,2013,
            Gaussian, Inc.  All Rights Reserved.
  
 This is part of the Gaussian(R) 09 program.  It is based on
 the Gaussian(R) 03 system (copyright 2003, Gaussian, Inc.),
 the Gaussian(R) 98 system (copyright 1998, Gaussian, Inc.),
 the Gaussian(R) 94 system (copyright 1995, Gaussian, Inc.),
 the Gaussian 92(TM) system (copyright 1992, Gaussian, Inc.),
 the Gaussian 90(TM) system (copyright 1990, Gaussian, Inc.),
 the Gaussian 88(TM) system (copyright 1988, Gaussian, Inc.),
 the Gaussian 86(TM) system (copyright 1986, Carnegie Mellon
 University), and the Gaussian 82(TM) system (copyright 1983,
 Carnegie Mellon University). Gaussian is a federally registered
 trademark of Gaussian, Inc.
  
 This software contains proprietary and confidential information,
 including trade secrets, belonging to Gaussian, Inc.
  
 This software is provided under written license and may be
 used, copied, transmitted, or stored only in accord with that
 written license.
  
 The following legend is applicable only to US Government
 contracts under FAR:
  
                    RESTRICTED RIGHTS LEGEND
  
 Use, reproduction and disclosure by the US Government is
 subject to restrictions as set forth in subparagraphs (a)
 and (c) of the Commercial Computer Software - Restricted
 Rights clause in FAR 52.227-19.
  
 Gaussian, Inc.
 340 Quinnipiac St., Bldg. 40, Wallingford CT 06492
  
  
 ---------------------------------------------------------------
 Warning -- This program may not be used in any manner that
 competes with the business of Gaussian, Inc. or will provide
 assistance to any competitor of Gaussian, Inc.  The licensee
 of this program is prohibited from giving any competitor of
 Gaussian, Inc. access to this program.  By using this program,
 the user acknowledges that Gaussian, Inc. is engaged in the
 business of creating and licensing software in the field of
 computational chemistry and represents and warrants to the
 licensee that it is not a competitor of Gaussian, Inc. and that
 it will not use this program in any manner prohibited above.
 ---------------------------------------------------------------
  

 Cite this work as:
 Gaussian 09, Revision D.01,
 M. J. Frisch, G. W. Trucks, H. B. Schlegel, G. E. Scuseria, 
 M. A. Robb, J. R. Cheeseman, G. Scalmani, V. Barone, B. Mennucci, 
 G. A. Petersson, H. Nakatsuji, M. Caricato, X. Li, H. P. Hratchian, 
 A. F. Izmaylov, J. Bloino, G. Zheng, J. L. Sonnenberg, M. Hada, 
 M. Ehara, K. Toyota, R. Fukuda, J. Hasegawa, M. Ishida, T. Nakajima, 
 Y. Honda, O. Kitao, H. Nakai, T. Vreven, J. A. Montgomery, Jr., 
 J. E. Peralta, F. Ogliaro, M. Bearpark, J. J. Heyd, E. Brothers, 
 K. N. Kudin, V. N. Staroverov, T. Keith, R. Kobayashi, J. Normand, 
 K. Raghavachari, A. Rendell, J. C. Burant, S. S. Iyengar, J. Tomasi, 
 M. Cossi, N. Rega, J. M. Millam, M. Klene, J. E. Knox, J. B. Cross, 
 V. Bakken, C. Adamo, J. Jaramillo, R. Gomperts, R. E. Stratmann, 
 O. Yazyev, A. J. Austin, R. Cammi, C. Pomelli, J. W. Ochterski, 
 R. L. Martin, K. Morokuma, V. G. Zakrzewski, G. A. Voth, 
 P. Salvador, J. J. Dannenberg, S. Dapprich, A. D. Daniels, 
 O. Farkas, J. B. Foresman, J. V. Ortiz, J. Cioslowski, 
 and D. J. Fox, Gaussian, Inc., Wallingford CT, 2013.
 
 ******************************************
 Gaussian 09:  AS64L-G09RevD.01 24-Apr-2013
                 6-Dec-2018 
 ******************************************
 %Chk=CH400211
 %Mem=2GB
 %NProcShared=16
 Will use up to   16 processors via shared memory.
 -----------------------------------------------------------
 #T M05/Gen test Massage Symmetry=None SCF=(tight,maxcyc=60)
 -----------------------------------------------------------
 -------
 M05 opt
 -------
 Symbolic Z-matrix:
 Charge =  0 Multiplicity = 1
 6                     0.        0.        0. 
 1                     0.69626   0.        0.86093 
 1                    -0.60811  -0.92515   0.01712 
 1                    -0.66705   0.88138   0.06479 
 1                     0.5789    0.04377  -0.94284 
 6-Bq                  0.        0.        3.93513 
 1-Bq                 -0.20874   1.05383   4.20321 
 1-Bq                 -0.5612   -0.26575   3.01839 
 1-Bq                  1.08487  -0.1267    3.75352 
 1-Bq                 -0.31493  -0.66138   4.76543 
 
                    Distance matrix (angstroms):
                    1          2          3          4          5
     1  C    0.000000
     2  H    1.107242   0.000000
     3  H    1.107243   1.808119   0.000000
     4  H    1.107243   1.808119   1.808119   0.000000
     5  H    1.107242   1.808119   1.808119   1.808119   0.000000
     6  C    3.935135   3.152061   4.071429   4.025093   4.912402
     7  H    4.338325   3.619442   4.647489   4.167288   5.303056
     8  H    3.081600   2.511266   3.073214   3.170315   4.133641
     9  H    3.909204   2.921318   4.179038   4.206205   4.726610
    10  H    4.821399   4.087173   4.764655   4.959848   5.820693
                    6          7          8          9         10
     6  C    0.000000
     7  H    1.107243   0.000000
     8  H    1.107243   1.808119   0.000000
     9  H    1.107243   1.808119   1.808119   0.000000
    10  H    1.107243   1.808119   1.808119   1.808119   0.000000
 Symmetry turned off by external request.
 Rotational constants (GHZ):     76.6916053      3.8662842      3.8662842
   276 basis functions,   360 primitive gaussians,   310 cartesian basis functions
     5 alpha electrons        5 beta electrons
       nuclear repulsion energy        13.2261670017 Hartrees.
 IMHF & INEx in M05                  614413                  385587
 NAtoms=   10 NActive=   10 NUniq=   10 SFac= 1.00D+00 NAtFMM=   60 NAOKFM=F Big=F
 ExpMin= 2.53D-02 ExpMax= 8.24D+03 ExpMxC= 2.81D+02 IAcc=3 IRadAn=         5 AccDes= 0.00D+00
 Harris functional with IExCor= 1009 and IRadAn=       5 diagonalized for initial guess.
 HarFok:  IExCor= 1009 AccDes= 0.00D+00 IRadAn=         5 IDoV= 1 UseB2=F ITyADJ=14
 ICtDFT=  3500011 ScaDFX=  1.000000  1.000000  1.000000  1.000000
 FoFCou: FMM=F IPFlag=           0 FMFlag=      100000 FMFlg1=           0
         NFxFlg=           0 DoJE=T BraDBF=F KetDBF=T FulRan=T
         wScrn=  0.000000 ICntrl=     500 IOpCl=  0 I1Cent=   200000004 NGrid=           0
         NMat0=    1 NMatS0=      1 NMatT0=    0 NMatD0=    1 NMtDS0=    0 NMtDT0=    0
 Symmetry not used in FoFCou.
 EnCoef did   100 forward-backward iterations
 SCF Done:  E(RM05) =  -47.0985119574     A.U. after   20 cycles
            NFock= 20  Conv=0.74D-08     -V/T= 2.0184

 **********************************************************************

            Population analysis using the SCF density.

 **********************************************************************

 Alpha  occ. eigenvalues --  -11.25584  -0.78136  -0.59336  -0.59331  -0.59327
 Alpha virt. eigenvalues --   -0.27377  -0.22586  -0.22570  -0.22563  -0.18541
 Alpha virt. eigenvalues --   -0.18244  -0.18217  -0.16333  -0.16218  -0.08300
 Alpha virt. eigenvalues --   -0.06827  -0.06133  -0.05868  -0.04421  -0.04007
 Alpha virt. eigenvalues --   -0.03752  -0.03134  -0.00658  -0.00553  -0.00449
 Alpha virt. eigenvalues --    0.01169   0.03169   0.03573   0.03952   0.05259
 Alpha virt. eigenvalues --    0.05583   0.06438   0.07108   0.07341   0.07834
 Alpha virt. eigenvalues --    0.08901   0.09343   0.09541   0.09792   0.10831
 Alpha virt. eigenvalues --    0.11687   0.12121   0.13318   0.14086   0.14988
 Alpha virt. eigenvalues --    0.17687   0.17831   0.19489   0.20533   0.21062
 Alpha virt. eigenvalues --    0.21701   0.23736   0.23893   0.25550   0.27088
 Alpha virt. eigenvalues --    0.28039   0.28639   0.30615   0.31376   0.31550
 Alpha virt. eigenvalues --    0.33292   0.33639   0.34264   0.35868   0.36219
 Alpha virt. eigenvalues --    0.36736   0.37095   0.38034   0.38848   0.40480
 Alpha virt. eigenvalues --    0.40904   0.41771   0.42192   0.43536   0.44359
 Alpha virt. eigenvalues --    0.44764   0.45072   0.46182   0.46433   0.48809
 Alpha virt. eigenvalues --    0.49835   0.50539   0.52078   0.52627   0.53324
 Alpha virt. eigenvalues --    0.54114   0.54956   0.55590   0.56212   0.57241
 Alpha virt. eigenvalues --    0.58192   0.59516   0.60898   0.61661   0.63300
 Alpha virt. eigenvalues --    0.63310   0.65729   0.71407   0.74522   0.77745
 Alpha virt. eigenvalues --    0.79415   0.80232   0.81156   0.81508   0.82412
 Alpha virt. eigenvalues --    0.83467   0.84676   0.85219   0.86248   0.86462
 Alpha virt. eigenvalues --    0.87576   0.88293   0.89578   0.91915   0.92894
 Alpha virt. eigenvalues --    0.95085   0.95532   0.96891   0.98623   0.99745
 Alpha virt. eigenvalues --    1.00543   1.01563   1.01782   1.03525   1.03981
 Alpha virt. eigenvalues --    1.05661   1.06474   1.07269   1.08758   1.09829
 Alpha virt. eigenvalues --    1.11140   1.13211   1.13717   1.15056   1.15359
 Alpha virt. eigenvalues --    1.17522   1.18570   1.20775   1.23060   1.23815
 Alpha virt. eigenvalues --    1.24777   1.26834   1.27100   1.27702   1.29717
 Alpha virt. eigenvalues --    1.32124   1.35203   1.37691   1.41420   1.48108
 Alpha virt. eigenvalues --    1.48514   1.49659   1.54171   1.57296   1.59896
 Alpha virt. eigenvalues --    1.64824   1.66861   1.71121   1.72913   1.79186
 Alpha virt. eigenvalues --    1.82331   1.84694   1.88569   1.89788   1.92951
 Alpha virt. eigenvalues --    1.95140   1.96135   1.96941   1.99391   2.02016
 Alpha virt. eigenvalues --    2.02171   2.06106   2.06677   2.09954   2.13151
 Alpha virt. eigenvalues --    2.15082   2.15578   2.16431   2.19012   2.20567
 Alpha virt. eigenvalues --    2.23372   2.23940   2.25008   2.28033   2.29392
 Alpha virt. eigenvalues --    2.29816   2.30004   2.30728   2.31834   2.35523
 Alpha virt. eigenvalues --    2.41804   2.53670   2.54851   2.57094   2.61218
 Alpha virt. eigenvalues --    2.61876   2.63938   2.64581   2.64695   2.65214
 Alpha virt. eigenvalues --    2.65505   2.66075   2.66588   2.68122   2.69267
 Alpha virt. eigenvalues --    2.72410   2.77827   2.92131   2.92315   2.93419
 Alpha virt. eigenvalues --    3.11113   3.22878   3.22991   3.23673   3.25848
 Alpha virt. eigenvalues --    3.25951   3.26655   3.26941   3.29618   3.53315
 Alpha virt. eigenvalues --    3.74756   3.75876   3.77789   3.78196   3.80167
 Alpha virt. eigenvalues --    3.83799   3.88335   3.90921   3.97576   4.04552
 Alpha virt. eigenvalues --    4.07294   4.14598   4.16718   4.20964   4.23780
 Alpha virt. eigenvalues --    4.31209   4.35005   4.37700   4.40600   4.41994
 Alpha virt. eigenvalues --    4.45300   4.45797   4.61574   4.74540   4.75539
 Alpha virt. eigenvalues --    4.77804   4.88677   4.94062   5.07196   5.12354
 Alpha virt. eigenvalues --    5.12770   5.14851   5.19142   5.26562   5.32902
 Alpha virt. eigenvalues --    5.36104   5.36623   5.38673   5.94954   5.96915
 Alpha virt. eigenvalues --    6.00176   6.06331   6.09002   6.62029   6.65120
 Alpha virt. eigenvalues --    6.68266   6.81176   7.40613   7.51334   7.56323
 Alpha virt. eigenvalues --    7.87799   7.89068   7.93599  10.12055  12.73392
 Alpha virt. eigenvalues --   52.13849
          Condensed to atoms (all electrons):
 Mulliken charges:
               1
     1  C   -0.139507
     2  H    0.575623
     3  H    0.030418
     4  H    0.038058
     5  H   -0.492269
     6  C    0.001895
     7  H   -0.001645
     8  H   -0.001494
     9  H   -0.011671
    10  H    0.000593
 Sum of Mulliken charges =  -0.00000
 Mulliken charges with hydrogens summed into heavy atoms:
               1
     1  C    0.012323
     6  C   -0.012323
 Electronic spatial extent (au):  <R**2>=             40.0962
 Charge=             -0.0000 electrons
 Dipole moment (field-independent basis, Debye):
    X=              0.0025    Y=             -0.0002    Z=             -0.0018  Tot=              0.0031

 Test job not archived.
 1\1\GINC-CHIMERA-NODE53\SP\RM05\Gen\C2H8\CONNORNM\06-Dec-2018\0\\#T M0
 5/Gen test Massage Symmetry=None SCF=(tight,maxcyc=60)\\M05 opt\\0,1\C
 ,0,0.,0.,0.\H,0,0.6962605,0.,0.86093395\H,0,-0.60810675,-0.92514813,0.
 01711946\H,0,-0.66704955,0.88138151,0.06478809\H,0,0.57889579,0.043766
 62,-0.9428415\C,0,0.,0.,3.9351349\H,0,-0.2087419,1.05382668,4.20320599
 \H,0,-0.56119969,-0.26575115,3.01839219\H,0,1.08487245,-0.12669707,3.7
 5351556\H,0,-0.31493086,-0.66137845,4.76542585\\Version=AS64L-G09RevD.
 01\HF=-47.098512\RMSD=7.421e-09\Dipole=0.0009647,-0.0000904,-0.0007146
 \Quadrupole=0.0014986,-0.0021929,0.0006942,0.0001991,0.0001184,0.00001
 48\PG=Unknown\\@


 ... SUBJECTS WHICH DISCLOSE THEIR FULL POWER, MEANING AND BEAUTY AS SOON
 AS THEY ARE PRESENTED TO THE MIND HAVE VERY LITTLE OF THOSE QUALITIES
 TO DISCLOSE.
                           -- CHARLES DUTTON (1882)
 Job cpu time:       0 days  0 hours 31 minutes 44.8 seconds.
 File lengths (MBytes):  RWF=     41 Int=      0 D2E=      0 Chk=      4 Scr=      1
 Normal termination of Gaussian 09 at Thu Dec  6 13:17:56 2018.
