 Entering Gaussian System, Link 0=/data/szalewicgrp/connornm/opt/Gaussian/g09-M05-par/g09/g09
 AtFile(1): aug-cc-pVTZ.gbs
 Initial command:
 /data/szalewicgrp/connornm/opt/Gaussian/g09-M05-par/g09/l1.exe "/scratch/local/Gau-46677.inp" -scrdir="/scratch/local/"
 Entering Link 1 = /data/szalewicgrp/connornm/opt/Gaussian/g09-M05-par/g09/l1.exe PID=     46678.
  
 Copyright (c) 1988,1990,1992,1993,1995,1998,2003,2009,2013,
            Gaussian, Inc.  All Rights Reserved.
  
 This is part of the Gaussian(R) 09 program.  It is based on
 the Gaussian(R) 03 system (copyright 2003, Gaussian, Inc.),
 the Gaussian(R) 98 system (copyright 1998, Gaussian, Inc.),
 the Gaussian(R) 94 system (copyright 1995, Gaussian, Inc.),
 the Gaussian 92(TM) system (copyright 1992, Gaussian, Inc.),
 the Gaussian 90(TM) system (copyright 1990, Gaussian, Inc.),
 the Gaussian 88(TM) system (copyright 1988, Gaussian, Inc.),
 the Gaussian 86(TM) system (copyright 1986, Carnegie Mellon
 University), and the Gaussian 82(TM) system (copyright 1983,
 Carnegie Mellon University). Gaussian is a federally registered
 trademark of Gaussian, Inc.
  
 This software contains proprietary and confidential information,
 including trade secrets, belonging to Gaussian, Inc.
  
 This software is provided under written license and may be
 used, copied, transmitted, or stored only in accord with that
 written license.
  
 The following legend is applicable only to US Government
 contracts under FAR:
  
                    RESTRICTED RIGHTS LEGEND
  
 Use, reproduction and disclosure by the US Government is
 subject to restrictions as set forth in subparagraphs (a)
 and (c) of the Commercial Computer Software - Restricted
 Rights clause in FAR 52.227-19.
  
 Gaussian, Inc.
 340 Quinnipiac St., Bldg. 40, Wallingford CT 06492
  
  
 ---------------------------------------------------------------
 Warning -- This program may not be used in any manner that
 competes with the business of Gaussian, Inc. or will provide
 assistance to any competitor of Gaussian, Inc.  The licensee
 of this program is prohibited from giving any competitor of
 Gaussian, Inc. access to this program.  By using this program,
 the user acknowledges that Gaussian, Inc. is engaged in the
 business of creating and licensing software in the field of
 computational chemistry and represents and warrants to the
 licensee that it is not a competitor of Gaussian, Inc. and that
 it will not use this program in any manner prohibited above.
 ---------------------------------------------------------------
  

 Cite this work as:
 Gaussian 09, Revision D.01,
 M. J. Frisch, G. W. Trucks, H. B. Schlegel, G. E. Scuseria, 
 M. A. Robb, J. R. Cheeseman, G. Scalmani, V. Barone, B. Mennucci, 
 G. A. Petersson, H. Nakatsuji, M. Caricato, X. Li, H. P. Hratchian, 
 A. F. Izmaylov, J. Bloino, G. Zheng, J. L. Sonnenberg, M. Hada, 
 M. Ehara, K. Toyota, R. Fukuda, J. Hasegawa, M. Ishida, T. Nakajima, 
 Y. Honda, O. Kitao, H. Nakai, T. Vreven, J. A. Montgomery, Jr., 
 J. E. Peralta, F. Ogliaro, M. Bearpark, J. J. Heyd, E. Brothers, 
 K. N. Kudin, V. N. Staroverov, T. Keith, R. Kobayashi, J. Normand, 
 K. Raghavachari, A. Rendell, J. C. Burant, S. S. Iyengar, J. Tomasi, 
 M. Cossi, N. Rega, J. M. Millam, M. Klene, J. E. Knox, J. B. Cross, 
 V. Bakken, C. Adamo, J. Jaramillo, R. Gomperts, R. E. Stratmann, 
 O. Yazyev, A. J. Austin, R. Cammi, C. Pomelli, J. W. Ochterski, 
 R. L. Martin, K. Morokuma, V. G. Zakrzewski, G. A. Voth, 
 P. Salvador, J. J. Dannenberg, S. Dapprich, A. D. Daniels, 
 O. Farkas, J. B. Foresman, J. V. Ortiz, J. Cioslowski, 
 and D. J. Fox, Gaussian, Inc., Wallingford CT, 2013.
 
 ******************************************
 Gaussian 09:  AS64L-G09RevD.01 24-Apr-2013
                 6-Dec-2018 
 ******************************************
 %Chk=CH400100
 %Mem=2GB
 %NProcShared=16
 Will use up to   16 processors via shared memory.
 -----------------------------------------------------------
 #T M05/Gen test Massage Symmetry=None SCF=(tight,maxcyc=60)
 -----------------------------------------------------------
 -------
 M05 opt
 -------
 Symbolic Z-matrix:
 Charge =  0 Multiplicity = 1
 6                     0.        0.        0. 
 1                     0.69516   0.       -0.86182 
 1                    -0.08587  -1.02696   0.40492 
 1                     0.3876    0.67576   0.78683 
 1                    -0.99689   0.3512   -0.32992 
 6-Bq                  0.        0.        2.84329 
 1-Bq                  0.25193  -0.28537   3.88304 
 1-Bq                  0.86381   0.51768   2.38303 
 1-Bq                 -0.2396   -0.90932   2.25873 
 1-Bq                 -0.87613   0.67702   2.84835 
 
                    Distance matrix (angstroms):
                    1          2          3          4          5
     1  C    0.000000
     2  H    1.107243   0.000000
     3  H    1.107243   1.808119   0.000000
     4  H    1.107243   1.808119   1.808119   0.000000
     5  H    1.107243   1.808119   1.808119   1.808119   0.000000
     6  C    2.843287   3.769760   2.647195   2.199073   3.344609
     7  H    3.901651   4.774054   3.572301   3.244798   4.440025
     8  H    2.587084   3.290218   2.683416   1.673213   3.293943
     9  H    2.446655   3.382082   1.863884   2.252193   2.977166
    10  H    3.055987   4.085670   3.081947   2.418037   3.197213
                    6          7          8          9         10
     6  C    0.000000
     7  H    1.107242   0.000000
     8  H    1.107242   1.808119   0.000000
     9  H    1.107243   1.808119   1.808119   0.000000
    10  H    1.107243   1.808119   1.808119   1.808119   0.000000
 Symmetry turned off by external request.
 Rotational constants (GHZ):     76.6916054      7.0790781      7.0790781
   276 basis functions,   360 primitive gaussians,   310 cartesian basis functions
     5 alpha electrons        5 beta electrons
       nuclear repulsion energy        13.2261669815 Hartrees.
 IMHF & INEx in M05                  614413                  385587
 NAtoms=   10 NActive=   10 NUniq=   10 SFac= 1.00D+00 NAtFMM=   60 NAOKFM=F Big=F
 ExpMin= 2.53D-02 ExpMax= 8.24D+03 ExpMxC= 2.81D+02 IAcc=3 IRadAn=         5 AccDes= 0.00D+00
 Harris functional with IExCor= 1009 and IRadAn=       5 diagonalized for initial guess.
 HarFok:  IExCor= 1009 AccDes= 0.00D+00 IRadAn=         5 IDoV= 1 UseB2=F ITyADJ=14
 ICtDFT=  3500011 ScaDFX=  1.000000  1.000000  1.000000  1.000000
 FoFCou: FMM=F IPFlag=           0 FMFlag=      100000 FMFlg1=           0
         NFxFlg=           0 DoJE=T BraDBF=F KetDBF=T FulRan=T
         wScrn=  0.000000 ICntrl=     500 IOpCl=  0 I1Cent=   200000004 NGrid=           0
         NMat0=    1 NMatS0=      1 NMatT0=    0 NMatD0=    1 NMtDS0=    0 NMtDT0=    0
 Symmetry not used in FoFCou.
 EnCoef did   100 forward-backward iterations
 Restarting incremental Fock formation.
 SCF Done:  E(RM05) =  -47.1003260518     A.U. after   22 cycles
            NFock= 22  Conv=0.69D-08     -V/T= 2.0179

 **********************************************************************

            Population analysis using the SCF density.

 **********************************************************************

 Alpha  occ. eigenvalues --  -11.25537  -0.78111  -0.59316  -0.59309  -0.59307
 Alpha virt. eigenvalues --   -0.27431  -0.22669  -0.22621  -0.22583  -0.18566
 Alpha virt. eigenvalues --   -0.18497  -0.18394  -0.17018  -0.16361  -0.08314
 Alpha virt. eigenvalues --   -0.07007  -0.06792  -0.06251  -0.05102  -0.04725
 Alpha virt. eigenvalues --   -0.03754  -0.03187  -0.00673  -0.00605  -0.00521
 Alpha virt. eigenvalues --    0.00996   0.02173   0.03045   0.04118   0.04386
 Alpha virt. eigenvalues --    0.06209   0.06596   0.06722   0.06922   0.07053
 Alpha virt. eigenvalues --    0.07894   0.08862   0.09290   0.10054   0.10329
 Alpha virt. eigenvalues --    0.10779   0.11311   0.11779   0.11887   0.13041
 Alpha virt. eigenvalues --    0.13753   0.15821   0.17480   0.18548   0.20623
 Alpha virt. eigenvalues --    0.21350   0.22530   0.23339   0.24029   0.25672
 Alpha virt. eigenvalues --    0.26099   0.26653   0.28002   0.28260   0.30464
 Alpha virt. eigenvalues --    0.32646   0.32980   0.33139   0.33921   0.35180
 Alpha virt. eigenvalues --    0.35387   0.35874   0.36715   0.37276   0.37919
 Alpha virt. eigenvalues --    0.38579   0.39170   0.40818   0.41586   0.43327
 Alpha virt. eigenvalues --    0.43762   0.45093   0.46210   0.46473   0.47964
 Alpha virt. eigenvalues --    0.49445   0.50301   0.51463   0.52106   0.52885
 Alpha virt. eigenvalues --    0.53861   0.55150   0.57000   0.58098   0.59557
 Alpha virt. eigenvalues --    0.60046   0.60625   0.61493   0.61530   0.63070
 Alpha virt. eigenvalues --    0.67047   0.67347   0.68266   0.71065   0.72497
 Alpha virt. eigenvalues --    0.74138   0.76216   0.76354   0.77440   0.77874
 Alpha virt. eigenvalues --    0.80595   0.81519   0.83463   0.84391   0.85132
 Alpha virt. eigenvalues --    0.86440   0.86839   0.88848   0.89352   0.90059
 Alpha virt. eigenvalues --    0.91322   0.92373   0.93629   0.94039   0.96035
 Alpha virt. eigenvalues --    0.96328   0.97514   0.99319   1.00505   1.01471
 Alpha virt. eigenvalues --    1.02926   1.04545   1.05753   1.06515   1.07111
 Alpha virt. eigenvalues --    1.07808   1.08686   1.12958   1.14458   1.16490
 Alpha virt. eigenvalues --    1.16963   1.18695   1.20917   1.21553   1.22475
 Alpha virt. eigenvalues --    1.22763   1.25579   1.27584   1.29514   1.30242
 Alpha virt. eigenvalues --    1.31931   1.32365   1.38250   1.39085   1.40535
 Alpha virt. eigenvalues --    1.42624   1.46857   1.47512   1.50095   1.53201
 Alpha virt. eigenvalues --    1.54031   1.55513   1.59363   1.60838   1.62284
 Alpha virt. eigenvalues --    1.64443   1.65626   1.70607   1.71982   1.77971
 Alpha virt. eigenvalues --    1.81185   1.91173   1.96456   1.97741   1.99243
 Alpha virt. eigenvalues --    2.01621   2.03841   2.07081   2.08821   2.10011
 Alpha virt. eigenvalues --    2.11304   2.12268   2.15456   2.16647   2.18375
 Alpha virt. eigenvalues --    2.19433   2.20314   2.24178   2.25498   2.26991
 Alpha virt. eigenvalues --    2.27776   2.28823   2.30820   2.33186   2.34708
 Alpha virt. eigenvalues --    2.35978   2.36948   2.39849   2.44673   2.50693
 Alpha virt. eigenvalues --    2.63086   2.63818   2.64104   2.66243   2.67598
 Alpha virt. eigenvalues --    2.69862   2.70915   2.72227   2.73056   2.74300
 Alpha virt. eigenvalues --    2.75496   2.81052   2.93515   2.95692   2.97201
 Alpha virt. eigenvalues --    3.13809   3.18795   3.22728   3.23354   3.23859
 Alpha virt. eigenvalues --    3.25180   3.26586   3.27801   3.28503   3.29782
 Alpha virt. eigenvalues --    3.32437   3.37923   3.43358   3.45809   3.50564
 Alpha virt. eigenvalues --    3.57565   3.61115   3.64370   3.68322   3.74938
 Alpha virt. eigenvalues --    3.77612   3.79573   3.81182   3.83737   3.88902
 Alpha virt. eigenvalues --    3.91683   3.93801   3.95467   4.04303   4.08842
 Alpha virt. eigenvalues --    4.12231   4.17128   4.22706   4.26631   4.33646
 Alpha virt. eigenvalues --    4.35075   4.47714   4.51896   4.54511   4.58795
 Alpha virt. eigenvalues --    4.65747   4.69137   4.75961   4.83279   4.93222
 Alpha virt. eigenvalues --    5.04523   5.07611   5.15098   5.42658   5.51710
 Alpha virt. eigenvalues --    5.53003   5.64076   5.65798   5.90280   6.09189
 Alpha virt. eigenvalues --    6.27665   6.46831   6.59910   6.90581   7.22214
 Alpha virt. eigenvalues --    7.34816   7.39777   7.51379   9.64285  12.97939
 Alpha virt. eigenvalues --   51.59211
          Condensed to atoms (all electrons):
 Mulliken charges:
               1
     1  C   -0.700524
     2  H   -0.668897
     3  H    0.522138
     4  H    0.836137
     5  H   -0.032843
     6  C    0.214285
     7  H    0.025324
     8  H   -0.097955
     9  H   -0.125659
    10  H    0.027995
 Sum of Mulliken charges =   0.00000
 Mulliken charges with hydrogens summed into heavy atoms:
               1
     1  C   -0.043989
     6  C    0.043989
 Electronic spatial extent (au):  <R**2>=             40.0815
 Charge=              0.0000 electrons
 Dipole moment (field-independent basis, Debye):
    X=              0.0010    Y=              0.0048    Z=              0.0000  Tot=              0.0049

 Test job not archived.
 1\1\GINC-CHIMERA-NODE11\SP\RM05\Gen\C2H8\CONNORNM\06-Dec-2018\0\\#T M0
 5/Gen test Massage Symmetry=None SCF=(tight,maxcyc=60)\\M05 opt\\0,1\C
 ,0,0.,0.,0.\H,0,0.69515882,0.,-0.86182375\H,0,-0.08586533,-1.02696191,
 0.40492263\H,0,0.38759961,0.67576435,0.78682593\H,0,-0.9968931,0.35119
 756,-0.32992481\C,0,0.,0.,2.84328672\H,0,0.2519292,-0.28537366,3.88303
 645\H,0,0.8638058,0.51768043,2.38303411\H,0,-0.23960121,-0.90932221,2.
 25872677\H,0,-0.87613379,0.67701544,2.84834955\\Version=AS64L-G09RevD.
 01\HF=-47.1003261\RMSD=6.922e-09\Dipole=0.0004042,0.0018716,0.0000004\
 Quadrupole=0.0047405,0.0059053,-0.0106458,0.002228,0.0022789,0.0034404
 \PG=Unknown\\@


 ERROR IS THE FORCE THAT WELDS MEN TOGETHER....
 TRUTH IS COMMUNICATED TO MEN ONLY BY DEEDS OF TRUTH.
           TOLSTOI,MY RELIGION
 Job cpu time:       0 days  0 hours 41 minutes  6.2 seconds.
 File lengths (MBytes):  RWF=     41 Int=      0 D2E=      0 Chk=      4 Scr=      1
 Normal termination of Gaussian 09 at Thu Dec  6 13:18:29 2018.
