 Entering Gaussian System, Link 0=/data/szalewicgrp/connornm/opt/Gaussian/g09-M05-par/g09/g09
 AtFile(1): aug-cc-pVTZ.gbs
 Initial command:
 /data/szalewicgrp/connornm/opt/Gaussian/g09-M05-par/g09/l1.exe "/scratch/local/Gau-33916.inp" -scrdir="/scratch/local/"
 Entering Link 1 = /data/szalewicgrp/connornm/opt/Gaussian/g09-M05-par/g09/l1.exe PID=     33917.
  
 Copyright (c) 1988,1990,1992,1993,1995,1998,2003,2009,2013,
            Gaussian, Inc.  All Rights Reserved.
  
 This is part of the Gaussian(R) 09 program.  It is based on
 the Gaussian(R) 03 system (copyright 2003, Gaussian, Inc.),
 the Gaussian(R) 98 system (copyright 1998, Gaussian, Inc.),
 the Gaussian(R) 94 system (copyright 1995, Gaussian, Inc.),
 the Gaussian 92(TM) system (copyright 1992, Gaussian, Inc.),
 the Gaussian 90(TM) system (copyright 1990, Gaussian, Inc.),
 the Gaussian 88(TM) system (copyright 1988, Gaussian, Inc.),
 the Gaussian 86(TM) system (copyright 1986, Carnegie Mellon
 University), and the Gaussian 82(TM) system (copyright 1983,
 Carnegie Mellon University). Gaussian is a federally registered
 trademark of Gaussian, Inc.
  
 This software contains proprietary and confidential information,
 including trade secrets, belonging to Gaussian, Inc.
  
 This software is provided under written license and may be
 used, copied, transmitted, or stored only in accord with that
 written license.
  
 The following legend is applicable only to US Government
 contracts under FAR:
  
                    RESTRICTED RIGHTS LEGEND
  
 Use, reproduction and disclosure by the US Government is
 subject to restrictions as set forth in subparagraphs (a)
 and (c) of the Commercial Computer Software - Restricted
 Rights clause in FAR 52.227-19.
  
 Gaussian, Inc.
 340 Quinnipiac St., Bldg. 40, Wallingford CT 06492
  
  
 ---------------------------------------------------------------
 Warning -- This program may not be used in any manner that
 competes with the business of Gaussian, Inc. or will provide
 assistance to any competitor of Gaussian, Inc.  The licensee
 of this program is prohibited from giving any competitor of
 Gaussian, Inc. access to this program.  By using this program,
 the user acknowledges that Gaussian, Inc. is engaged in the
 business of creating and licensing software in the field of
 computational chemistry and represents and warrants to the
 licensee that it is not a competitor of Gaussian, Inc. and that
 it will not use this program in any manner prohibited above.
 ---------------------------------------------------------------
  

 Cite this work as:
 Gaussian 09, Revision D.01,
 M. J. Frisch, G. W. Trucks, H. B. Schlegel, G. E. Scuseria, 
 M. A. Robb, J. R. Cheeseman, G. Scalmani, V. Barone, B. Mennucci, 
 G. A. Petersson, H. Nakatsuji, M. Caricato, X. Li, H. P. Hratchian, 
 A. F. Izmaylov, J. Bloino, G. Zheng, J. L. Sonnenberg, M. Hada, 
 M. Ehara, K. Toyota, R. Fukuda, J. Hasegawa, M. Ishida, T. Nakajima, 
 Y. Honda, O. Kitao, H. Nakai, T. Vreven, J. A. Montgomery, Jr., 
 J. E. Peralta, F. Ogliaro, M. Bearpark, J. J. Heyd, E. Brothers, 
 K. N. Kudin, V. N. Staroverov, T. Keith, R. Kobayashi, J. Normand, 
 K. Raghavachari, A. Rendell, J. C. Burant, S. S. Iyengar, J. Tomasi, 
 M. Cossi, N. Rega, J. M. Millam, M. Klene, J. E. Knox, J. B. Cross, 
 V. Bakken, C. Adamo, J. Jaramillo, R. Gomperts, R. E. Stratmann, 
 O. Yazyev, A. J. Austin, R. Cammi, C. Pomelli, J. W. Ochterski, 
 R. L. Martin, K. Morokuma, V. G. Zakrzewski, G. A. Voth, 
 P. Salvador, J. J. Dannenberg, S. Dapprich, A. D. Daniels, 
 O. Farkas, J. B. Foresman, J. V. Ortiz, J. Cioslowski, 
 and D. J. Fox, Gaussian, Inc., Wallingford CT, 2013.
 
 ******************************************
 Gaussian 09:  AS64L-G09RevD.01 24-Apr-2013
                 5-Dec-2018 
 ******************************************
 %Chk=CH400061
 %Mem=2GB
 %NProcShared=16
 Will use up to   16 processors via shared memory.
 -----------------------------------------------------------
 #T M05/Gen test Massage Symmetry=None SCF=(tight,maxcyc=60)
 -----------------------------------------------------------
 -------
 M05 opt
 -------
 Symbolic Z-matrix:
 Charge =  0 Multiplicity = 1
 6                     0.        0.        0. 
 1                     0.54918   0.       -0.96145 
 1                    -1.04527  -0.32221  -0.17201 
 1                     0.49034  -0.69881   0.70513 
 1                     0.00574   1.02102   0.42833 
 6-Bq                  0.        0.        2.52343 
 1-Bq                  0.94149  -0.49948   2.22325 
 1-Bq                 -0.80788  -0.7529    2.60377 
 1-Bq                  0.14136   0.49568   3.50338 
 1-Bq                 -0.27496   0.75671   1.76331 
 
                    Distance matrix (angstroms):
                    1          2          3          4          5
     1  C    0.000000
     2  H    1.107243   0.000000
     3  H    1.107242   1.808119   0.000000
     4  H    1.107243   1.808119   1.808119   0.000000
     5  H    1.107242   1.808119   1.808119   1.808119   0.000000
     6  C    2.523427   3.527884   2.908913   2.008724   2.330657
     7  H    2.465501   3.247409   3.117026   1.596225   2.531655
     8  H    2.828280   3.888353   2.819011   2.300682   2.922561
     9  H    3.541094   4.510734   3.947846   3.062482   3.122550
    10  H    1.938420   2.945528   2.345822   1.955498   1.389547
                    6          7          8          9         10
     6  C    0.000000
     7  H    1.107242   0.000000
     8  H    1.107242   1.808119   0.000000
     9  H    1.107242   1.808119   1.808119   0.000000
    10  H    1.107243   1.808119   1.808119   1.808119   0.000000
 Symmetry turned off by external request.
 Rotational constants (GHZ):     76.6916056      8.7692395      8.7692395
   276 basis functions,   360 primitive gaussians,   310 cartesian basis functions
     5 alpha electrons        5 beta electrons
       nuclear repulsion energy        13.2261669970 Hartrees.
 IMHF & INEx in M05                  614413                  385587
 NAtoms=   10 NActive=   10 NUniq=   10 SFac= 1.00D+00 NAtFMM=   60 NAOKFM=F Big=F
 ExpMin= 2.53D-02 ExpMax= 8.24D+03 ExpMxC= 2.81D+02 IAcc=3 IRadAn=         5 AccDes= 0.00D+00
 Harris functional with IExCor= 1009 and IRadAn=       5 diagonalized for initial guess.
 HarFok:  IExCor= 1009 AccDes= 0.00D+00 IRadAn=         5 IDoV= 1 UseB2=F ITyADJ=14
 ICtDFT=  3500011 ScaDFX=  1.000000  1.000000  1.000000  1.000000
 FoFCou: FMM=F IPFlag=           0 FMFlag=      100000 FMFlg1=           0
         NFxFlg=           0 DoJE=T BraDBF=F KetDBF=T FulRan=T
         wScrn=  0.000000 ICntrl=     500 IOpCl=  0 I1Cent=   200000004 NGrid=           0
         NMat0=    1 NMatS0=      1 NMatT0=    0 NMatD0=    1 NMtDS0=    0 NMtDT0=    0
 Symmetry not used in FoFCou.
 SCF Done:  E(RM05) =  -44.9253763962     A.U. after   10 cycles
            NFock= 10  Conv=0.47D-08     -V/T= 2.0275

 **********************************************************************

            Population analysis using the SCF density.

 **********************************************************************

 Alpha  occ. eigenvalues --  -11.79344  -0.95372  -0.65730  -0.65723  -0.65715
 Alpha virt. eigenvalues --   -0.07419  -0.00613  -0.00558  -0.00548   0.01194
 Alpha virt. eigenvalues --    0.01467   0.01561   0.03655   0.04095   0.04883
 Alpha virt. eigenvalues --    0.06095   0.06775   0.06957   0.07866   0.08745
 Alpha virt. eigenvalues --    0.09336   0.10470   0.11501   0.12741   0.14635
 Alpha virt. eigenvalues --    0.16719   0.18113   0.19244   0.20101   0.20531
 Alpha virt. eigenvalues --    0.21307   0.21725   0.22196   0.23409   0.24081
 Alpha virt. eigenvalues --    0.25690   0.25815   0.27189   0.28007   0.28479
 Alpha virt. eigenvalues --    0.29370   0.29760   0.30997   0.31733   0.32884
 Alpha virt. eigenvalues --    0.34145   0.34823   0.36990   0.37548   0.38418
 Alpha virt. eigenvalues --    0.39292   0.40422   0.42375   0.42901   0.43775
 Alpha virt. eigenvalues --    0.44600   0.45008   0.46653   0.47226   0.49232
 Alpha virt. eigenvalues --    0.50617   0.51608   0.53819   0.55740   0.56405
 Alpha virt. eigenvalues --    0.57853   0.58209   0.60449   0.60615   0.60974
 Alpha virt. eigenvalues --    0.62219   0.62998   0.64621   0.67047   0.68055
 Alpha virt. eigenvalues --    0.70182   0.72281   0.72437   0.75301   0.76502
 Alpha virt. eigenvalues --    0.77968   0.79628   0.81103   0.81614   0.84445
 Alpha virt. eigenvalues --    0.85818   0.86138   0.87347   0.88322   0.91367
 Alpha virt. eigenvalues --    0.91991   0.93386   0.94236   0.95542   0.96150
 Alpha virt. eigenvalues --    0.97057   0.98746   1.01577   1.02321   1.02941
 Alpha virt. eigenvalues --    1.04674   1.04909   1.06457   1.08544   1.10877
 Alpha virt. eigenvalues --    1.11047   1.11607   1.13028   1.15895   1.18937
 Alpha virt. eigenvalues --    1.20461   1.22112   1.22830   1.23872   1.26081
 Alpha virt. eigenvalues --    1.27056   1.29035   1.29589   1.29871   1.31860
 Alpha virt. eigenvalues --    1.33269   1.35100   1.35572   1.36010   1.40242
 Alpha virt. eigenvalues --    1.42937   1.44352   1.45983   1.47631   1.48650
 Alpha virt. eigenvalues --    1.49453   1.50124   1.54348   1.57057   1.58199
 Alpha virt. eigenvalues --    1.58920   1.63269   1.66064   1.69126   1.72840
 Alpha virt. eigenvalues --    1.73940   1.76858   1.77343   1.78615   1.79739
 Alpha virt. eigenvalues --    1.82408   1.82897   1.85691   1.87555   1.90584
 Alpha virt. eigenvalues --    1.91780   1.92047   1.94477   1.97295   1.98917
 Alpha virt. eigenvalues --    2.01055   2.05266   2.06867   2.11866   2.12446
 Alpha virt. eigenvalues --    2.14664   2.24702   2.30869   2.32697   2.34723
 Alpha virt. eigenvalues --    2.41742   2.47186   2.57090   2.57252   2.63606
 Alpha virt. eigenvalues --    2.67636   2.71146   2.81300   2.82395   2.85819
 Alpha virt. eigenvalues --    3.09207   3.14108   3.15223   3.16411   3.20879
 Alpha virt. eigenvalues --    3.22504   3.26275   3.32198   3.34407   3.38468
 Alpha virt. eigenvalues --    3.40280   3.53498   3.55856   3.57705   3.60018
 Alpha virt. eigenvalues --    3.63396   3.67631   3.68387   3.70029   3.72993
 Alpha virt. eigenvalues --    3.79044   3.85719   3.90066   3.93473   3.97296
 Alpha virt. eigenvalues --    3.98681   4.02479   4.04665   4.06396   4.10578
 Alpha virt. eigenvalues --    4.12311   4.13737   4.15568   4.18148   4.19811
 Alpha virt. eigenvalues --    4.21507   4.26369   4.28847   4.30284   4.33455
 Alpha virt. eigenvalues --    4.35522   4.37961   4.44086   4.45383   4.48132
 Alpha virt. eigenvalues --    4.50224   4.52644   4.55761   4.57817   4.60288
 Alpha virt. eigenvalues --    4.62858   4.67164   4.68592   4.73639   4.77544
 Alpha virt. eigenvalues --    4.83869   4.86895   4.90612   4.92823   4.95458
 Alpha virt. eigenvalues --    5.03202   5.03898   5.06682   5.12389   5.14933
 Alpha virt. eigenvalues --    5.17524   5.20436   5.21021   5.25170   5.26747
 Alpha virt. eigenvalues --    5.33022   5.36449   5.38433   5.41673   5.45035
 Alpha virt. eigenvalues --    5.48251   5.54647   5.55983   5.62879   5.73502
 Alpha virt. eigenvalues --    5.81420   5.83886   5.86976   6.00844   6.04939
 Alpha virt. eigenvalues --    6.09048   6.10759   6.31462   6.74659   6.76227
 Alpha virt. eigenvalues --    6.81167   6.88068   7.44870   7.54222   7.62163
 Alpha virt. eigenvalues --    7.95959   8.04476   8.07008  10.40614  16.10848
 Alpha virt. eigenvalues --   53.74329
          Condensed to atoms (all electrons):
 Mulliken charges:
               1
     1  C   -0.692800
     2  H   -0.422268
     3  H    0.155450
     4  H    0.488575
     5  H    0.731949
     6  C    0.084796
     7  H    0.057018
     8  H   -0.002177
     9  H    0.002925
    10  H   -0.403469
 Sum of Mulliken charges =  -0.00000
 Mulliken charges with hydrogens summed into heavy atoms:
               1
     1  C    0.260907
     6  C   -0.260907
 Electronic spatial extent (au):  <R**2>=             36.0890
 Charge=             -0.0000 electrons
 Dipole moment (field-independent basis, Debye):
    X=             -0.0003    Y=              0.0001    Z=             -0.0004  Tot=              0.0005

 Test job not archived.
 1\1\GINC-CHIMERA-NODE10\SP\RM05\Gen\C2H8\CONNORNM\05-Dec-2018\0\\#T M0
 5/Gen test Massage Symmetry=None SCF=(tight,maxcyc=60)\\M05 opt\\0,1\C
 ,0,0.,0.,0.\H,0,0.5491814,0.,-0.96144982\H,0,-1.04526531,-0.32220986,-
 0.17200927\H,0,0.49034191,-0.69881343,0.70513159\H,0,0.00574201,1.0210
 2328,0.42832749\C,0,0.,0.,2.523427\H,0,0.94148608,-0.49948053,2.223245
 2\H,0,-0.80787672,-0.75290477,2.60377353\H,0,0.14135556,0.49568003,3.5
 0337897\H,0,-0.27496491,0.75670527,1.7633103\\Version=AS64L-G09RevD.01
 \HF=-44.9253764\RMSD=4.667e-09\Dipole=-0.0001345,0.0000256,-0.0001565\
 Quadrupole=-0.0006367,-0.0000499,0.0006866,0.0003255,-0.0017684,0.0007
 537\PG=Unknown\\@


 GARLIC THEN HAVE POWER TO SAVE FROM DEATH
 BEAR WITH IT THOUGH IT MAKETH UNSAVORY BREATH,
 AND SCORN NOT GARLIC LIKE SOME THAT THINK
 IT ONLY MAKETH MEN WINK AND DRINK AND STINK.
   --  SIR JOHN HARRINGTON,
       "THE ENGLISHMAN'S DOCTOR", 1609
 Job cpu time:       0 days  0 hours 28 minutes 52.6 seconds.
 File lengths (MBytes):  RWF=     41 Int=      0 D2E=      0 Chk=      4 Scr=      1
 Normal termination of Gaussian 09 at Wed Dec  5 22:06:10 2018.
