 Entering Gaussian System, Link 0=/data/szalewicgrp/connornm/opt/Gaussian/g09-M05-par/g09/g09
 AtFile(1): aug-cc-pVTZ.gbs
 Initial command:
 /data/szalewicgrp/connornm/opt/Gaussian/g09-M05-par/g09/l1.exe "/scratch/local/Gau-5720.inp" -scrdir="/scratch/local/"
 Entering Link 1 = /data/szalewicgrp/connornm/opt/Gaussian/g09-M05-par/g09/l1.exe PID=      5721.
  
 Copyright (c) 1988,1990,1992,1993,1995,1998,2003,2009,2013,
            Gaussian, Inc.  All Rights Reserved.
  
 This is part of the Gaussian(R) 09 program.  It is based on
 the Gaussian(R) 03 system (copyright 2003, Gaussian, Inc.),
 the Gaussian(R) 98 system (copyright 1998, Gaussian, Inc.),
 the Gaussian(R) 94 system (copyright 1995, Gaussian, Inc.),
 the Gaussian 92(TM) system (copyright 1992, Gaussian, Inc.),
 the Gaussian 90(TM) system (copyright 1990, Gaussian, Inc.),
 the Gaussian 88(TM) system (copyright 1988, Gaussian, Inc.),
 the Gaussian 86(TM) system (copyright 1986, Carnegie Mellon
 University), and the Gaussian 82(TM) system (copyright 1983,
 Carnegie Mellon University). Gaussian is a federally registered
 trademark of Gaussian, Inc.
  
 This software contains proprietary and confidential information,
 including trade secrets, belonging to Gaussian, Inc.
  
 This software is provided under written license and may be
 used, copied, transmitted, or stored only in accord with that
 written license.
  
 The following legend is applicable only to US Government
 contracts under FAR:
  
                    RESTRICTED RIGHTS LEGEND
  
 Use, reproduction and disclosure by the US Government is
 subject to restrictions as set forth in subparagraphs (a)
 and (c) of the Commercial Computer Software - Restricted
 Rights clause in FAR 52.227-19.
  
 Gaussian, Inc.
 340 Quinnipiac St., Bldg. 40, Wallingford CT 06492
  
  
 ---------------------------------------------------------------
 Warning -- This program may not be used in any manner that
 competes with the business of Gaussian, Inc. or will provide
 assistance to any competitor of Gaussian, Inc.  The licensee
 of this program is prohibited from giving any competitor of
 Gaussian, Inc. access to this program.  By using this program,
 the user acknowledges that Gaussian, Inc. is engaged in the
 business of creating and licensing software in the field of
 computational chemistry and represents and warrants to the
 licensee that it is not a competitor of Gaussian, Inc. and that
 it will not use this program in any manner prohibited above.
 ---------------------------------------------------------------
  

 Cite this work as:
 Gaussian 09, Revision D.01,
 M. J. Frisch, G. W. Trucks, H. B. Schlegel, G. E. Scuseria, 
 M. A. Robb, J. R. Cheeseman, G. Scalmani, V. Barone, B. Mennucci, 
 G. A. Petersson, H. Nakatsuji, M. Caricato, X. Li, H. P. Hratchian, 
 A. F. Izmaylov, J. Bloino, G. Zheng, J. L. Sonnenberg, M. Hada, 
 M. Ehara, K. Toyota, R. Fukuda, J. Hasegawa, M. Ishida, T. Nakajima, 
 Y. Honda, O. Kitao, H. Nakai, T. Vreven, J. A. Montgomery, Jr., 
 J. E. Peralta, F. Ogliaro, M. Bearpark, J. J. Heyd, E. Brothers, 
 K. N. Kudin, V. N. Staroverov, T. Keith, R. Kobayashi, J. Normand, 
 K. Raghavachari, A. Rendell, J. C. Burant, S. S. Iyengar, J. Tomasi, 
 M. Cossi, N. Rega, J. M. Millam, M. Klene, J. E. Knox, J. B. Cross, 
 V. Bakken, C. Adamo, J. Jaramillo, R. Gomperts, R. E. Stratmann, 
 O. Yazyev, A. J. Austin, R. Cammi, C. Pomelli, J. W. Ochterski, 
 R. L. Martin, K. Morokuma, V. G. Zakrzewski, G. A. Voth, 
 P. Salvador, J. J. Dannenberg, S. Dapprich, A. D. Daniels, 
 O. Farkas, J. B. Foresman, J. V. Ortiz, J. Cioslowski, 
 and D. J. Fox, Gaussian, Inc., Wallingford CT, 2013.
 
 ******************************************
 Gaussian 09:  AS64L-G09RevD.01 24-Apr-2013
                 6-Dec-2018 
 ******************************************
 %Chk=CH400223
 %Mem=2GB
 %NProcShared=16
 Will use up to   16 processors via shared memory.
 -----------------------------------------------------------
 #T M05/Gen test Massage Symmetry=None SCF=(tight,maxcyc=60)
 -----------------------------------------------------------
 -------
 M05 opt
 -------
 Symbolic Z-matrix:
 Charge =  0 Multiplicity = 1
 6                     0.        0.        0. 
 1                     0.62009   0.        0.91732 
 1                     0.65483   0.09154  -0.88815 
 1                    -0.57178  -0.94635  -0.05898 
 1                    -0.70314   0.85481   0.02981 
 6-Bq                  0.        0.        4.60546 
 1-Bq                  0.32046  -1.02427   4.33313 
 1-Bq                  0.83267   0.70731   4.42557 
 1-Bq                 -0.87133   0.29075   3.9872 
 1-Bq                 -0.28179   0.02621   5.67592 
 
                    Distance matrix (angstroms):
                    1          2          3          4          5
     1  C    0.000000
     2  H    1.107243   0.000000
     3  H    1.107242   1.808119   0.000000
     4  H    1.107243   1.808119   1.808119   0.000000
     5  H    1.107243   1.808119   1.808119   1.808119   0.000000
     6  C    4.605457   3.739903   5.533252   4.793694   4.707615
     7  H    4.464065   3.578646   5.349638   4.482504   4.805962
     8  H    4.558431   3.585151   5.352233   4.981795   4.658663
     9  H    4.091644   3.425356   5.112524   4.241669   4.000927
    10  H    5.682972   4.843384   6.630876   5.824009   5.722120
                    6          7          8          9         10
     6  C    0.000000
     7  H    1.107242   0.000000
     8  H    1.107242   1.808119   0.000000
     9  H    1.107243   1.808119   1.808119   0.000000
    10  H    1.107243   1.808119   1.808119   1.808119   0.000000
 Symmetry turned off by external request.
 Rotational constants (GHZ):     76.6916056      2.8616573      2.8616573
   276 basis functions,   360 primitive gaussians,   310 cartesian basis functions
     5 alpha electrons        5 beta electrons
       nuclear repulsion energy        13.2261669867 Hartrees.
 IMHF & INEx in M05                  614413                  385587
 NAtoms=   10 NActive=   10 NUniq=   10 SFac= 1.00D+00 NAtFMM=   60 NAOKFM=F Big=F
 ExpMin= 2.53D-02 ExpMax= 8.24D+03 ExpMxC= 2.81D+02 IAcc=3 IRadAn=         5 AccDes= 0.00D+00
 Harris functional with IExCor= 1009 and IRadAn=       5 diagonalized for initial guess.
 HarFok:  IExCor= 1009 AccDes= 0.00D+00 IRadAn=         5 IDoV= 1 UseB2=F ITyADJ=14
 ICtDFT=  3500011 ScaDFX=  1.000000  1.000000  1.000000  1.000000
 FoFCou: FMM=F IPFlag=           0 FMFlag=      100000 FMFlg1=           0
         NFxFlg=           0 DoJE=T BraDBF=F KetDBF=T FulRan=T
         wScrn=  0.000000 ICntrl=     500 IOpCl=  0 I1Cent=   200000004 NGrid=           0
         NMat0=    1 NMatS0=      1 NMatT0=    0 NMatD0=    1 NMtDS0=    0 NMtDT0=    0
 Symmetry not used in FoFCou.
 SCF Done:  E(RM05) =  -40.9122187461     A.U. after    7 cycles
            NFock=  7  Conv=0.37D-08     -V/T= 2.0128

 **********************************************************************

            Population analysis using the SCF density.

 **********************************************************************

 Alpha  occ. eigenvalues --  -10.74527  -0.82767  -0.48751  -0.48751  -0.48751
 Alpha virt. eigenvalues --   -0.00117   0.02282   0.02803   0.02878   0.04141
 Alpha virt. eigenvalues --    0.05107   0.05209   0.06936   0.08036   0.08846
 Alpha virt. eigenvalues --    0.09952   0.10646   0.11063   0.11587   0.11672
 Alpha virt. eigenvalues --    0.12361   0.15275   0.15555   0.16263   0.17202
 Alpha virt. eigenvalues --    0.19971   0.21636   0.22021   0.24157   0.24727
 Alpha virt. eigenvalues --    0.25609   0.26868   0.27391   0.27886   0.28712
 Alpha virt. eigenvalues --    0.29060   0.29400   0.29677   0.30803   0.30936
 Alpha virt. eigenvalues --    0.31838   0.32466   0.33375   0.34007   0.34495
 Alpha virt. eigenvalues --    0.35442   0.35957   0.36918   0.37438   0.38402
 Alpha virt. eigenvalues --    0.39372   0.40084   0.41739   0.42605   0.44202
 Alpha virt. eigenvalues --    0.46459   0.47064   0.47312   0.49219   0.50729
 Alpha virt. eigenvalues --    0.52097   0.54719   0.55904   0.56959   0.58127
 Alpha virt. eigenvalues --    0.60550   0.65603   0.65729   0.66010   0.66867
 Alpha virt. eigenvalues --    0.71032   0.71514   0.73618   0.76858   0.78443
 Alpha virt. eigenvalues --    0.79335   0.81229   0.84927   0.85698   0.86286
 Alpha virt. eigenvalues --    0.86756   0.87187   0.89406   0.89634   0.92207
 Alpha virt. eigenvalues --    0.93688   0.94338   0.94583   0.95170   0.95949
 Alpha virt. eigenvalues --    0.96532   0.98793   0.99445   1.00330   1.00949
 Alpha virt. eigenvalues --    1.02470   1.03056   1.03625   1.04067   1.04661
 Alpha virt. eigenvalues --    1.05164   1.05631   1.06561   1.07128   1.08083
 Alpha virt. eigenvalues --    1.08700   1.10644   1.11060   1.12291   1.12987
 Alpha virt. eigenvalues --    1.14214   1.15104   1.16535   1.17764   1.18353
 Alpha virt. eigenvalues --    1.22463   1.24043   1.25481   1.26855   1.29096
 Alpha virt. eigenvalues --    1.32558   1.35398   1.37453   1.37592   1.38620
 Alpha virt. eigenvalues --    1.39389   1.43899   1.44478   1.46372   1.46648
 Alpha virt. eigenvalues --    1.47063   1.47572   1.49391   1.55055   1.57224
 Alpha virt. eigenvalues --    1.59751   1.60944   1.66720   1.67394   1.69358
 Alpha virt. eigenvalues --    1.69905   1.70516   1.73268   1.75581   1.76358
 Alpha virt. eigenvalues --    1.80362   1.83773   1.84034   1.85433   1.92923
 Alpha virt. eigenvalues --    1.93637   1.96441   1.99101   2.01126   2.01304
 Alpha virt. eigenvalues --    2.03320   2.03728   2.04010   2.06491   2.07164
 Alpha virt. eigenvalues --    2.11750   2.26478   2.27223   2.31076   2.36922
 Alpha virt. eigenvalues --    2.44338   2.44753   2.65547   2.67530   2.68330
 Alpha virt. eigenvalues --    2.71828   2.82673   2.86769   2.87456   2.90772
 Alpha virt. eigenvalues --    3.18487   3.18804   3.21314   3.22079   3.23429
 Alpha virt. eigenvalues --    3.25685   3.26201   3.28669   3.57147   3.57416
 Alpha virt. eigenvalues --    3.58571   3.67191   3.71120   3.71367   3.71760
 Alpha virt. eigenvalues --    3.73172   3.73330   3.76948   3.80933   3.81793
 Alpha virt. eigenvalues --    3.82899   3.98555   3.99849   4.00314   4.02274
 Alpha virt. eigenvalues --    4.02345   4.02732   4.15097   4.16064   4.18091
 Alpha virt. eigenvalues --    4.18354   4.19990   4.32230   4.33198   4.34888
 Alpha virt. eigenvalues --    4.35263   4.35331   4.35904   4.37357   4.41232
 Alpha virt. eigenvalues --    4.43033   4.44707   4.48802   4.49585   4.49955
 Alpha virt. eigenvalues --    4.50196   4.52865   4.53299   4.59143   4.59443
 Alpha virt. eigenvalues --    4.63874   4.74269   4.75282   4.78484   4.78688
 Alpha virt. eigenvalues --    4.80087   4.91319   4.91482   4.95157   5.13969
 Alpha virt. eigenvalues --    5.14183   5.14833   5.15313   5.15687   5.16146
 Alpha virt. eigenvalues --    5.22137   5.29098   5.29396   5.29851   5.32163
 Alpha virt. eigenvalues --    5.32434   5.40862   5.41263   5.47031   5.47755
 Alpha virt. eigenvalues --    5.48187   5.53647   5.57533   5.57762   5.60412
 Alpha virt. eigenvalues --    6.03145   6.04515   6.07449   6.12871   6.13886
 Alpha virt. eigenvalues --    6.14681   6.23897   6.23911   6.79517   6.80171
 Alpha virt. eigenvalues --    6.81959   6.95812   7.64857   7.65011   7.68139
 Alpha virt. eigenvalues --    8.02612   8.04857   8.09095  10.26885  16.64441
 Alpha virt. eigenvalues --   52.24386
          Condensed to atoms (all electrons):
 Mulliken charges:
               1
     1  C   -1.849552
     2  H    0.541795
     3  H    0.433861
     4  H    0.437374
     5  H    0.435403
     6  C    0.002489
     7  H   -0.000626
     8  H   -0.001104
     9  H    0.000157
    10  H    0.000202
 Sum of Mulliken charges =  -0.00000
 Mulliken charges with hydrogens summed into heavy atoms:
               1
     1  C   -0.001119
     6  C    0.001119
 Electronic spatial extent (au):  <R**2>=             36.5432
 Charge=              0.0000 electrons
 Dipole moment (field-independent basis, Debye):
    X=              0.0001    Y=              0.0000    Z=              0.0001  Tot=              0.0001

 Test job not archived.
 1\1\GINC-CHIMERA-NODE27\SP\RM05\Gen\C2H8\CONNORNM\06-Dec-2018\0\\#T M0
 5/Gen test Massage Symmetry=None SCF=(tight,maxcyc=60)\\M05 opt\\0,1\C
 ,0,0.,0.,0.\H,0,0.62009024,0.,0.91731895\H,0,0.65482841,0.09153907,-0.
 88814768\H,0,-0.57178211,-0.94634681,-0.05898219\H,0,-0.70313655,0.854
 80773,0.02981093\C,0,0.,0.,4.60545746\H,0,0.32045528,-1.02427257,4.333
 134\H,0,0.83266672,0.70731366,4.42557009\H,0,-0.87132982,0.29074727,3.
 98720482\H,0,-0.28179218,0.02621164,5.67592095\\Version=AS64L-G09RevD.
 01\HF=-40.9122187\RMSD=3.710e-09\Dipole=0.000041,0.0000014,0.000034\Qu
 adrupole=0.0009922,-0.000672,-0.0003202,0.0000465,-0.0001085,-0.000023
 2\PG=Unknown\\@


 It is also a good rule not to put too much confidence in
 experimental results until they have been confirmed by
 Theory.
                             -- Sir Arthur Eddington
 Job cpu time:       0 days  0 hours 10 minutes 18.3 seconds.
 File lengths (MBytes):  RWF=     41 Int=      0 D2E=      0 Chk=      4 Scr=      1
 Normal termination of Gaussian 09 at Thu Dec  6 13:20:34 2018.
