 Entering Gaussian System, Link 0=/data/szalewicgrp/connornm/opt/Gaussian/g09-M05-par/g09/g09
 AtFile(1): aug-cc-pVTZ.gbs
 Initial command:
 /data/szalewicgrp/connornm/opt/Gaussian/g09-M05-par/g09/l1.exe "/scratch/local/Gau-16514.inp" -scrdir="/scratch/local/"
 Entering Link 1 = /data/szalewicgrp/connornm/opt/Gaussian/g09-M05-par/g09/l1.exe PID=     16515.
  
 Copyright (c) 1988,1990,1992,1993,1995,1998,2003,2009,2013,
            Gaussian, Inc.  All Rights Reserved.
  
 This is part of the Gaussian(R) 09 program.  It is based on
 the Gaussian(R) 03 system (copyright 2003, Gaussian, Inc.),
 the Gaussian(R) 98 system (copyright 1998, Gaussian, Inc.),
 the Gaussian(R) 94 system (copyright 1995, Gaussian, Inc.),
 the Gaussian 92(TM) system (copyright 1992, Gaussian, Inc.),
 the Gaussian 90(TM) system (copyright 1990, Gaussian, Inc.),
 the Gaussian 88(TM) system (copyright 1988, Gaussian, Inc.),
 the Gaussian 86(TM) system (copyright 1986, Carnegie Mellon
 University), and the Gaussian 82(TM) system (copyright 1983,
 Carnegie Mellon University). Gaussian is a federally registered
 trademark of Gaussian, Inc.
  
 This software contains proprietary and confidential information,
 including trade secrets, belonging to Gaussian, Inc.
  
 This software is provided under written license and may be
 used, copied, transmitted, or stored only in accord with that
 written license.
  
 The following legend is applicable only to US Government
 contracts under FAR:
  
                    RESTRICTED RIGHTS LEGEND
  
 Use, reproduction and disclosure by the US Government is
 subject to restrictions as set forth in subparagraphs (a)
 and (c) of the Commercial Computer Software - Restricted
 Rights clause in FAR 52.227-19.
  
 Gaussian, Inc.
 340 Quinnipiac St., Bldg. 40, Wallingford CT 06492
  
  
 ---------------------------------------------------------------
 Warning -- This program may not be used in any manner that
 competes with the business of Gaussian, Inc. or will provide
 assistance to any competitor of Gaussian, Inc.  The licensee
 of this program is prohibited from giving any competitor of
 Gaussian, Inc. access to this program.  By using this program,
 the user acknowledges that Gaussian, Inc. is engaged in the
 business of creating and licensing software in the field of
 computational chemistry and represents and warrants to the
 licensee that it is not a competitor of Gaussian, Inc. and that
 it will not use this program in any manner prohibited above.
 ---------------------------------------------------------------
  

 Cite this work as:
 Gaussian 09, Revision D.01,
 M. J. Frisch, G. W. Trucks, H. B. Schlegel, G. E. Scuseria, 
 M. A. Robb, J. R. Cheeseman, G. Scalmani, V. Barone, B. Mennucci, 
 G. A. Petersson, H. Nakatsuji, M. Caricato, X. Li, H. P. Hratchian, 
 A. F. Izmaylov, J. Bloino, G. Zheng, J. L. Sonnenberg, M. Hada, 
 M. Ehara, K. Toyota, R. Fukuda, J. Hasegawa, M. Ishida, T. Nakajima, 
 Y. Honda, O. Kitao, H. Nakai, T. Vreven, J. A. Montgomery, Jr., 
 J. E. Peralta, F. Ogliaro, M. Bearpark, J. J. Heyd, E. Brothers, 
 K. N. Kudin, V. N. Staroverov, T. Keith, R. Kobayashi, J. Normand, 
 K. Raghavachari, A. Rendell, J. C. Burant, S. S. Iyengar, J. Tomasi, 
 M. Cossi, N. Rega, J. M. Millam, M. Klene, J. E. Knox, J. B. Cross, 
 V. Bakken, C. Adamo, J. Jaramillo, R. Gomperts, R. E. Stratmann, 
 O. Yazyev, A. J. Austin, R. Cammi, C. Pomelli, J. W. Ochterski, 
 R. L. Martin, K. Morokuma, V. G. Zakrzewski, G. A. Voth, 
 P. Salvador, J. J. Dannenberg, S. Dapprich, A. D. Daniels, 
 O. Farkas, J. B. Foresman, J. V. Ortiz, J. Cioslowski, 
 and D. J. Fox, Gaussian, Inc., Wallingford CT, 2013.
 
 ******************************************
 Gaussian 09:  AS64L-G09RevD.01 24-Apr-2013
                 6-Dec-2018 
 ******************************************
 %Chk=CH400043
 %Mem=2GB
 %NProcShared=16
 Will use up to   16 processors via shared memory.
 -----------------------------------------------------------
 #T M05/Gen test Massage Symmetry=None SCF=(tight,maxcyc=60)
 -----------------------------------------------------------
 -------
 M05 opt
 -------
 Symbolic Z-matrix:
 Charge =  0 Multiplicity = 1
 6                     0.        0.        0. 
 1                     1.10229   0.       -0.10461 
 1                    -0.45092  -0.55573  -0.84488 
 1                    -0.28022  -0.48745   0.95386 
 1                    -0.37115   1.04317  -0.00438 
 6-Bq                  0.        0.        4.91121 
 1-Bq                 -0.71585  -0.81885   5.11867 
 1-Bq                 -0.12685   0.80097   5.6651 
 1-Bq                  1.03415  -0.39258   4.96024 
 1-Bq                 -0.19145   0.41046   3.90084 
 
                    Distance matrix (angstroms):
                    1          2          3          4          5
     1  C    0.000000
     2  H    1.107243   0.000000
     3  H    1.107242   1.808119   0.000000
     4  H    1.107243   1.808119   1.808119   0.000000
     5  H    1.107243   1.808119   1.808119   1.808119   0.000000
     6  C    4.911211   5.135509   5.800412   3.997089   5.038745
     7  H    5.232943   5.590949   5.975228   4.200616   5.461821
     8  H    5.722848   5.953305   6.657741   4.886641   5.679903
     9  H    5.082084   5.080496   5.994291   4.217537   5.355715
    10  H    3.927040   4.229160   4.850019   3.082005   3.960214
                    6          7          8          9         10
     6  C    0.000000
     7  H    1.107243   0.000000
     8  H    1.107243   1.808119   0.000000
     9  H    1.107243   1.808119   1.808119   0.000000
    10  H    1.107243   1.808119   1.808119   1.808119   0.000000
 Symmetry turned off by external request.
 Rotational constants (GHZ):     76.6916053      2.5278155      2.5278155
   276 basis functions,   360 primitive gaussians,   310 cartesian basis functions
     5 alpha electrons        5 beta electrons
       nuclear repulsion energy        13.2261669886 Hartrees.
 IMHF & INEx in M05                  614413                  385587
 NAtoms=   10 NActive=   10 NUniq=   10 SFac= 1.00D+00 NAtFMM=   60 NAOKFM=F Big=F
 ExpMin= 2.53D-02 ExpMax= 8.24D+03 ExpMxC= 2.81D+02 IAcc=3 IRadAn=         5 AccDes= 0.00D+00
 Harris functional with IExCor= 1009 and IRadAn=       5 diagonalized for initial guess.
 HarFok:  IExCor= 1009 AccDes= 0.00D+00 IRadAn=         5 IDoV= 1 UseB2=F ITyADJ=14
 ICtDFT=  3500011 ScaDFX=  1.000000  1.000000  1.000000  1.000000
 FoFCou: FMM=F IPFlag=           0 FMFlag=      100000 FMFlg1=           0
         NFxFlg=           0 DoJE=T BraDBF=F KetDBF=T FulRan=T
         wScrn=  0.000000 ICntrl=     500 IOpCl=  0 I1Cent=   200000004 NGrid=           0
         NMat0=    1 NMatS0=      1 NMatT0=    0 NMatD0=    1 NMtDS0=    0 NMtDT0=    0
 Symmetry not used in FoFCou.
 EnCoef did   100 forward-backward iterations
 SCF Done:  E(RM05) =  -47.0977344081     A.U. after   20 cycles
            NFock= 20  Conv=0.39D-08     -V/T= 2.0186

 **********************************************************************

            Population analysis using the SCF density.

 **********************************************************************

 Alpha  occ. eigenvalues --  -11.25596  -0.78146  -0.59344  -0.59338  -0.59338
 Alpha virt. eigenvalues --   -0.27366  -0.22585  -0.22572  -0.22556  -0.18433
 Alpha virt. eigenvalues --   -0.18195  -0.18103  -0.16191  -0.16008  -0.08266
 Alpha virt. eigenvalues --   -0.06622  -0.05964  -0.05810  -0.03918  -0.03642
 Alpha virt. eigenvalues --   -0.03149  -0.03064  -0.00621  -0.00513  -0.00440
 Alpha virt. eigenvalues --    0.01619   0.03175   0.03465   0.04394   0.04899
 Alpha virt. eigenvalues --    0.05692   0.06886   0.07221   0.07534   0.09122
 Alpha virt. eigenvalues --    0.09586   0.09697   0.10633   0.11160   0.11590
 Alpha virt. eigenvalues --    0.12153   0.12741   0.14157   0.14558   0.15127
 Alpha virt. eigenvalues --    0.16789   0.19643   0.21097   0.21356   0.21700
 Alpha virt. eigenvalues --    0.23916   0.25515   0.25838   0.27328   0.28270
 Alpha virt. eigenvalues --    0.29728   0.31102   0.32241   0.32457   0.33564
 Alpha virt. eigenvalues --    0.33826   0.34396   0.35466   0.35788   0.36668
 Alpha virt. eigenvalues --    0.36711   0.37826   0.38469   0.39962   0.40923
 Alpha virt. eigenvalues --    0.41527   0.42153   0.43159   0.44166   0.44931
 Alpha virt. eigenvalues --    0.45769   0.46589   0.47323   0.48524   0.49499
 Alpha virt. eigenvalues --    0.50497   0.51295   0.52075   0.52808   0.53354
 Alpha virt. eigenvalues --    0.54057   0.55219   0.55589   0.56739   0.58296
 Alpha virt. eigenvalues --    0.59938   0.60541   0.60850   0.61345   0.62028
 Alpha virt. eigenvalues --    0.63586   0.65591   0.76137   0.77423   0.78500
 Alpha virt. eigenvalues --    0.79271   0.79659   0.82634   0.83958   0.84616
 Alpha virt. eigenvalues --    0.85027   0.85728   0.86683   0.87930   0.88799
 Alpha virt. eigenvalues --    0.90308   0.92084   0.92848   0.95817   0.96705
 Alpha virt. eigenvalues --    0.97943   0.98791   0.99926   1.01195   1.01924
 Alpha virt. eigenvalues --    1.02439   1.03034   1.03421   1.03899   1.06576
 Alpha virt. eigenvalues --    1.07031   1.07970   1.09238   1.10412   1.11504
 Alpha virt. eigenvalues --    1.12249   1.13284   1.15479   1.16665   1.18098
 Alpha virt. eigenvalues --    1.18321   1.19017   1.21333   1.22122   1.23783
 Alpha virt. eigenvalues --    1.26896   1.29845   1.30456   1.31597   1.32798
 Alpha virt. eigenvalues --    1.33715   1.35290   1.39550   1.40556   1.47679
 Alpha virt. eigenvalues --    1.47971   1.48464   1.55514   1.63702   1.65274
 Alpha virt. eigenvalues --    1.68262   1.75546   1.76202   1.79490   1.86333
 Alpha virt. eigenvalues --    1.92387   1.93515   1.95019   1.95168   1.95785
 Alpha virt. eigenvalues --    1.96639   1.98140   1.99710   2.00284   2.00592
 Alpha virt. eigenvalues --    2.01067   2.05168   2.06032   2.06393   2.15062
 Alpha virt. eigenvalues --    2.15583   2.16537   2.20054   2.20396   2.21262
 Alpha virt. eigenvalues --    2.22543   2.22831   2.23077   2.28148   2.28696
 Alpha virt. eigenvalues --    2.28961   2.29559   2.30925   2.34596   2.38950
 Alpha virt. eigenvalues --    2.43759   2.60239   2.61299   2.61660   2.63437
 Alpha virt. eigenvalues --    2.63868   2.63955   2.64183   2.64394   2.64644
 Alpha virt. eigenvalues --    2.65017   2.65272   2.66656   2.67098   2.69804
 Alpha virt. eigenvalues --    2.72928   2.75979   2.91226   2.91597   2.91912
 Alpha virt. eigenvalues --    3.09632   3.22727   3.22975   3.23188   3.25674
 Alpha virt. eigenvalues --    3.25753   3.26131   3.26207   3.28427   3.62095
 Alpha virt. eigenvalues --    3.75116   3.75996   3.77129   3.92472   3.93024
 Alpha virt. eigenvalues --    3.95673   3.97674   3.98880   4.01078   4.11310
 Alpha virt. eigenvalues --    4.12725   4.28373   4.29729   4.33438   4.33532
 Alpha virt. eigenvalues --    4.37917   4.43096   4.46799   4.48211   4.54023
 Alpha virt. eigenvalues --    4.55249   4.56697   4.70653   4.86264   4.86810
 Alpha virt. eigenvalues --    4.86929   5.06324   5.07365   5.13627   5.24039
 Alpha virt. eigenvalues --    5.24183   5.26129   5.34131   5.37364   5.42991
 Alpha virt. eigenvalues --    5.43412   5.45096   5.45753   6.07937   6.08528
 Alpha virt. eigenvalues --    6.10236   6.19262   6.19412   6.75640   6.75856
 Alpha virt. eigenvalues --    6.77141   6.91370   7.57278   7.62312   7.64120
 Alpha virt. eigenvalues --    7.97640   7.98243   8.04170  10.25000  12.53704
 Alpha virt. eigenvalues --   52.22087
          Condensed to atoms (all electrons):
 Mulliken charges:
               1
     1  C    0.154297
     2  H   -0.091839
     3  H   -0.247390
     4  H    0.289640
     5  H   -0.105350
     6  C    0.002607
     7  H   -0.002516
     8  H    0.000593
     9  H   -0.000976
    10  H    0.000934
 Sum of Mulliken charges =  -0.00000
 Mulliken charges with hydrogens summed into heavy atoms:
               1
     1  C   -0.000641
     6  C    0.000641
 Electronic spatial extent (au):  <R**2>=             40.1042
 Charge=              0.0000 electrons
 Dipole moment (field-independent basis, Debye):
    X=             -0.0009    Y=             -0.0008    Z=              0.0020  Tot=              0.0024

 Test job not archived.
 1\1\GINC-CHIMERA-NODE60\SP\RM05\Gen\C2H8\CONNORNM\06-Dec-2018\0\\#T M0
 5/Gen test Massage Symmetry=None SCF=(tight,maxcyc=60)\\M05 opt\\0,1\C
 ,0,0.,0.,0.\H,0,1.10229018,0.,-0.10460552\H,0,-0.4509171,-0.55572573,-
 0.8448838\H,0,-0.28021884,-0.48744796,0.95386469\H,0,-0.37115424,1.043
 17369,-0.00437537\C,0,0.,0.,4.91121084\H,0,-0.71584801,-0.81884658,5.1
 1866654\H,0,-0.12685316,0.80096576,5.66509948\H,0,1.03414958,-0.392576
 85,4.96024165\H,0,-0.19144841,0.41045767,3.90083568\\Version=AS64L-G09
 RevD.01\HF=-47.0977344\RMSD=3.931e-09\Dipole=-0.000345,-0.0003091,0.00
 08016\Quadrupole=-0.0001405,-0.0000981,0.0002386,0.0014598,0.0009755,0
 .0012378\PG=Unknown\\@


 IT MATTERS NOT HOW DEEP YOU PLOW,
 BUT HOW LONG YOU STAY IN THE FURROW.
 Job cpu time:       0 days  0 hours 27 minutes  1.7 seconds.
 File lengths (MBytes):  RWF=     41 Int=      0 D2E=      0 Chk=      4 Scr=      1
 Normal termination of Gaussian 09 at Thu Dec  6 13:17:38 2018.
