 Entering Gaussian System, Link 0=/data/szalewicgrp/connornm/opt/Gaussian/g09-M05-par/g09/g09
 AtFile(1): aug-cc-pVTZ.gbs
 Initial command:
 /data/szalewicgrp/connornm/opt/Gaussian/g09-M05-par/g09/l1.exe "/scratch/local/Gau-8039.inp" -scrdir="/scratch/local/"
 Entering Link 1 = /data/szalewicgrp/connornm/opt/Gaussian/g09-M05-par/g09/l1.exe PID=      8040.
  
 Copyright (c) 1988,1990,1992,1993,1995,1998,2003,2009,2013,
            Gaussian, Inc.  All Rights Reserved.
  
 This is part of the Gaussian(R) 09 program.  It is based on
 the Gaussian(R) 03 system (copyright 2003, Gaussian, Inc.),
 the Gaussian(R) 98 system (copyright 1998, Gaussian, Inc.),
 the Gaussian(R) 94 system (copyright 1995, Gaussian, Inc.),
 the Gaussian 92(TM) system (copyright 1992, Gaussian, Inc.),
 the Gaussian 90(TM) system (copyright 1990, Gaussian, Inc.),
 the Gaussian 88(TM) system (copyright 1988, Gaussian, Inc.),
 the Gaussian 86(TM) system (copyright 1986, Carnegie Mellon
 University), and the Gaussian 82(TM) system (copyright 1983,
 Carnegie Mellon University). Gaussian is a federally registered
 trademark of Gaussian, Inc.
  
 This software contains proprietary and confidential information,
 including trade secrets, belonging to Gaussian, Inc.
  
 This software is provided under written license and may be
 used, copied, transmitted, or stored only in accord with that
 written license.
  
 The following legend is applicable only to US Government
 contracts under FAR:
  
                    RESTRICTED RIGHTS LEGEND
  
 Use, reproduction and disclosure by the US Government is
 subject to restrictions as set forth in subparagraphs (a)
 and (c) of the Commercial Computer Software - Restricted
 Rights clause in FAR 52.227-19.
  
 Gaussian, Inc.
 340 Quinnipiac St., Bldg. 40, Wallingford CT 06492
  
  
 ---------------------------------------------------------------
 Warning -- This program may not be used in any manner that
 competes with the business of Gaussian, Inc. or will provide
 assistance to any competitor of Gaussian, Inc.  The licensee
 of this program is prohibited from giving any competitor of
 Gaussian, Inc. access to this program.  By using this program,
 the user acknowledges that Gaussian, Inc. is engaged in the
 business of creating and licensing software in the field of
 computational chemistry and represents and warrants to the
 licensee that it is not a competitor of Gaussian, Inc. and that
 it will not use this program in any manner prohibited above.
 ---------------------------------------------------------------
  

 Cite this work as:
 Gaussian 09, Revision D.01,
 M. J. Frisch, G. W. Trucks, H. B. Schlegel, G. E. Scuseria, 
 M. A. Robb, J. R. Cheeseman, G. Scalmani, V. Barone, B. Mennucci, 
 G. A. Petersson, H. Nakatsuji, M. Caricato, X. Li, H. P. Hratchian, 
 A. F. Izmaylov, J. Bloino, G. Zheng, J. L. Sonnenberg, M. Hada, 
 M. Ehara, K. Toyota, R. Fukuda, J. Hasegawa, M. Ishida, T. Nakajima, 
 Y. Honda, O. Kitao, H. Nakai, T. Vreven, J. A. Montgomery, Jr., 
 J. E. Peralta, F. Ogliaro, M. Bearpark, J. J. Heyd, E. Brothers, 
 K. N. Kudin, V. N. Staroverov, T. Keith, R. Kobayashi, J. Normand, 
 K. Raghavachari, A. Rendell, J. C. Burant, S. S. Iyengar, J. Tomasi, 
 M. Cossi, N. Rega, J. M. Millam, M. Klene, J. E. Knox, J. B. Cross, 
 V. Bakken, C. Adamo, J. Jaramillo, R. Gomperts, R. E. Stratmann, 
 O. Yazyev, A. J. Austin, R. Cammi, C. Pomelli, J. W. Ochterski, 
 R. L. Martin, K. Morokuma, V. G. Zakrzewski, G. A. Voth, 
 P. Salvador, J. J. Dannenberg, S. Dapprich, A. D. Daniels, 
 O. Farkas, J. B. Foresman, J. V. Ortiz, J. Cioslowski, 
 and D. J. Fox, Gaussian, Inc., Wallingford CT, 2013.
 
 ******************************************
 Gaussian 09:  AS64L-G09RevD.01 24-Apr-2013
                 6-Dec-2018 
 ******************************************
 %Chk=CH400019
 %Mem=2GB
 %NProcShared=16
 Will use up to   16 processors via shared memory.
 -----------------------------------------------------------
 #T M05/Gen test Massage Symmetry=None SCF=(tight,maxcyc=60)
 -----------------------------------------------------------
 -------
 M05 opt
 -------
 Symbolic Z-matrix:
 Charge =  0 Multiplicity = 1
 6                     0.        0.        0. 
 1                     0.60822   0.        0.92523 
 1                     0.6358    0.28768  -0.85964 
 1                    -0.41382  -1.01289  -0.16965 
 1                    -0.8302    0.72521   0.10406 
 6-Bq                  0.        0.        2.49035 
 1-Bq                  0.41318   0.78035   1.82229 
 1-Bq                  0.22775  -1.00049   2.07426 
 1-Bq                  0.45628   0.09461   3.49477 
 1-Bq                 -1.09721   0.12553   2.5701 
 
                    Distance matrix (angstroms):
                    1          2          3          4          5
     1  C    0.000000
     2  H    1.107243   0.000000
     3  H    1.107243   1.808119   0.000000
     4  H    1.107242   1.808119   1.808119   0.000000
     5  H    1.107242   1.808119   1.808119   1.808119   0.000000
     6  C    2.490352   1.679145   3.421908   2.876251   2.628604
     7  H    2.024943   1.204862   2.735875   2.804904   2.121635
     8  H    2.314179   1.570355   3.230123   2.333863   2.824715
     9  H    3.525695   2.575758   4.362380   3.925758   3.680974
    10  H    2.797323   2.372723   3.846129   3.044542   2.551911
                    6          7          8          9         10
     6  C    0.000000
     7  H    1.107243   0.000000
     8  H    1.107242   1.808119   0.000000
     9  H    1.107243   1.808119   1.808119   0.000000
    10  H    1.107243   1.808119   1.808119   1.808119   0.000000
 Symmetry turned off by external request.
 Rotational constants (GHZ):     76.6916053      8.9762737      8.9762736
   276 basis functions,   360 primitive gaussians,   310 cartesian basis functions
     5 alpha electrons        5 beta electrons
       nuclear repulsion energy        13.2261669813 Hartrees.
 IMHF & INEx in M05                  614413                  385587
 NAtoms=   10 NActive=   10 NUniq=   10 SFac= 1.00D+00 NAtFMM=   60 NAOKFM=F Big=F
 ExpMin= 2.53D-02 ExpMax= 8.24D+03 ExpMxC= 2.81D+02 IAcc=3 IRadAn=         5 AccDes= 0.00D+00
 Harris functional with IExCor= 1009 and IRadAn=       5 diagonalized for initial guess.
 HarFok:  IExCor= 1009 AccDes= 0.00D+00 IRadAn=         5 IDoV= 1 UseB2=F ITyADJ=14
 ICtDFT=  3500011 ScaDFX=  1.000000  1.000000  1.000000  1.000000
 FoFCou: FMM=F IPFlag=           0 FMFlag=      100000 FMFlg1=           0
         NFxFlg=           0 DoJE=T BraDBF=F KetDBF=T FulRan=T
         wScrn=  0.000000 ICntrl=     500 IOpCl=  0 I1Cent=   200000004 NGrid=           0
         NMat0=    1 NMatS0=      1 NMatT0=    0 NMatD0=    1 NMtDS0=    0 NMtDT0=    0
 Symmetry not used in FoFCou.
 SCF Done:  E(RM05) =  -40.9123717676     A.U. after    7 cycles
            NFock=  7  Conv=0.88D-08     -V/T= 2.0126

 **********************************************************************

            Population analysis using the SCF density.

 **********************************************************************

 Alpha  occ. eigenvalues --  -10.74535  -0.82771  -0.48758  -0.48753  -0.48753
 Alpha virt. eigenvalues --   -0.00116   0.02446   0.02698   0.02769   0.05044
 Alpha virt. eigenvalues --    0.05285   0.05526   0.06529   0.07912   0.08943
 Alpha virt. eigenvalues --    0.09926   0.10570   0.10704   0.11170   0.12470
 Alpha virt. eigenvalues --    0.14129   0.15741   0.16563   0.17892   0.18535
 Alpha virt. eigenvalues --    0.21301   0.22727   0.23548   0.25559   0.26429
 Alpha virt. eigenvalues --    0.26516   0.27398   0.28305   0.29029   0.29722
 Alpha virt. eigenvalues --    0.30247   0.30692   0.32146   0.32771   0.33455
 Alpha virt. eigenvalues --    0.33885   0.35354   0.36502   0.36881   0.37282
 Alpha virt. eigenvalues --    0.37769   0.39409   0.40892   0.42299   0.42908
 Alpha virt. eigenvalues --    0.43904   0.44308   0.45639   0.47060   0.48566
 Alpha virt. eigenvalues --    0.49223   0.50118   0.50684   0.52038   0.53604
 Alpha virt. eigenvalues --    0.54605   0.56563   0.58191   0.61437   0.62514
 Alpha virt. eigenvalues --    0.64352   0.65548   0.67017   0.68657   0.71036
 Alpha virt. eigenvalues --    0.72284   0.73996   0.74628   0.77130   0.78882
 Alpha virt. eigenvalues --    0.81173   0.82296   0.84869   0.86665   0.87834
 Alpha virt. eigenvalues --    0.89669   0.91447   0.92164   0.93146   0.94373
 Alpha virt. eigenvalues --    0.95521   0.97076   0.98056   0.98758   0.99782
 Alpha virt. eigenvalues --    1.00327   1.02053   1.04024   1.04431   1.05135
 Alpha virt. eigenvalues --    1.06046   1.07703   1.09114   1.10502   1.10791
 Alpha virt. eigenvalues --    1.12212   1.12866   1.14654   1.15358   1.16351
 Alpha virt. eigenvalues --    1.17673   1.20058   1.21517   1.22717   1.24112
 Alpha virt. eigenvalues --    1.28854   1.30033   1.32451   1.32957   1.34309
 Alpha virt. eigenvalues --    1.35446   1.36066   1.37839   1.38331   1.42318
 Alpha virt. eigenvalues --    1.44882   1.46499   1.46871   1.49212   1.50445
 Alpha virt. eigenvalues --    1.51143   1.55790   1.57277   1.58365   1.60536
 Alpha virt. eigenvalues --    1.61839   1.64277   1.67058   1.68480   1.69023
 Alpha virt. eigenvalues --    1.71374   1.74099   1.76215   1.78893   1.82373
 Alpha virt. eigenvalues --    1.83742   1.85132   1.86046   1.90101   1.91404
 Alpha virt. eigenvalues --    1.92353   1.95241   1.97295   1.98906   2.01156
 Alpha virt. eigenvalues --    2.02159   2.03638   2.06155   2.08259   2.09432
 Alpha virt. eigenvalues --    2.11619   2.15113   2.16904   2.22846   2.24959
 Alpha virt. eigenvalues --    2.27114   2.34026   2.38773   2.42234   2.44611
 Alpha virt. eigenvalues --    2.49211   2.55338   2.63773   2.65508   2.73421
 Alpha virt. eigenvalues --    2.90183   2.94785   3.01645   3.04098   3.19742
 Alpha virt. eigenvalues --    3.27164   3.30263   3.32182   3.35916   3.37600
 Alpha virt. eigenvalues --    3.41922   3.47243   3.54264   3.57150   3.60807
 Alpha virt. eigenvalues --    3.63146   3.71283   3.73052   3.76630   3.79853
 Alpha virt. eigenvalues --    3.80169   3.81377   3.86560   3.90039   3.93167
 Alpha virt. eigenvalues --    3.95649   3.99756   4.02872   4.06806   4.07135
 Alpha virt. eigenvalues --    4.11666   4.13213   4.17337   4.21675   4.25793
 Alpha virt. eigenvalues --    4.30757   4.31144   4.32521   4.36191   4.38328
 Alpha virt. eigenvalues --    4.43869   4.44843   4.45398   4.47770   4.50195
 Alpha virt. eigenvalues --    4.51948   4.54974   4.56308   4.59568   4.62569
 Alpha virt. eigenvalues --    4.65977   4.68147   4.73010   4.79289   4.81448
 Alpha virt. eigenvalues --    4.84272   4.84568   4.88383   4.90331   4.99619
 Alpha virt. eigenvalues --    5.01184   5.05530   5.12253   5.14193   5.16979
 Alpha virt. eigenvalues --    5.17812   5.18864   5.20704   5.23907   5.27700
 Alpha virt. eigenvalues --    5.30608   5.32688   5.34157   5.39018   5.41054
 Alpha virt. eigenvalues --    5.46032   5.48583   5.56830   5.61428   5.64277
 Alpha virt. eigenvalues --    5.69080   5.73263   5.77650   5.96086   6.01817
 Alpha virt. eigenvalues --    6.09180   6.10439   6.12908   6.15330   6.17243
 Alpha virt. eigenvalues --    6.19389   6.27911   6.41208   6.78419   6.81108
 Alpha virt. eigenvalues --    6.92036   7.38892   7.54263   7.60104   7.62809
 Alpha virt. eigenvalues --    8.02339   8.05080   8.23638  10.68074  17.48604
 Alpha virt. eigenvalues --   54.08803
          Condensed to atoms (all electrons):
 Mulliken charges:
               1
     1  C   -2.029467
     2  H    0.736350
     3  H    0.377334
     4  H    0.467211
     5  H    0.440511
     6  C   -0.080293
     7  H    0.041720
     8  H    0.059092
     9  H    0.014399
    10  H   -0.026858
 Sum of Mulliken charges =   0.00000
 Mulliken charges with hydrogens summed into heavy atoms:
               1
     1  C   -0.008060
     6  C    0.008060
 Electronic spatial extent (au):  <R**2>=             36.5407
 Charge=             -0.0000 electrons
 Dipole moment (field-independent basis, Debye):
    X=              0.0001    Y=              0.0000    Z=              0.0001  Tot=              0.0002

 Test job not archived.
 1\1\GINC-CHIMERA-NODE28\SP\RM05\Gen\C2H8\CONNORNM\06-Dec-2018\0\\#T M0
 5/Gen test Massage Symmetry=None SCF=(tight,maxcyc=60)\\M05 opt\\0,1\C
 ,0,0.,0.,0.\H,0,0.6082186,0.,0.925233\H,0,0.63580123,0.2876809,-0.8596
 4089\H,0,-0.41382463,-1.01289381,-0.1696504\H,0,-0.83019519,0.72521291
 ,0.1040583\C,0,0.,0.,2.4903522\H,0,0.41318316,0.78035372,1.82228506\H,
 0,0.22774774,-1.00049341,2.07426344\H,0,0.45627852,0.09460675,3.494765
 18\H,0,-1.09720942,0.12553294,2.57009514\\Version=AS64L-G09RevD.01\HF=
 -40.9123718\RMSD=8.841e-09\Dipole=0.0000551,0.0000068,0.0000277\Quadru
 pole=0.0006155,-0.0003969,-0.0002186,-0.0000323,-0.0000221,-0.0000006\
 PG=Unknown\\@


 THERE IS MUCH PLEASURE TO BE GAINED FROM USELESS KNOWLEDGE

                                       -- BERTRAND RUSSELL
 Job cpu time:       0 days  0 hours 13 minutes 41.0 seconds.
 File lengths (MBytes):  RWF=     41 Int=      0 D2E=      0 Chk=      4 Scr=      1
 Normal termination of Gaussian 09 at Thu Dec  6 13:20:47 2018.
