 Entering Gaussian System, Link 0=/data/szalewicgrp/connornm/opt/Gaussian/g09-M05-par/g09/g09
 AtFile(1): aug-cc-pVTZ.gbs
 Initial command:
 /data/szalewicgrp/connornm/opt/Gaussian/g09-M05-par/g09/l1.exe "/scratch/local/Gau-34394.inp" -scrdir="/scratch/local/"
 Entering Link 1 = /data/szalewicgrp/connornm/opt/Gaussian/g09-M05-par/g09/l1.exe PID=     34395.
  
 Copyright (c) 1988,1990,1992,1993,1995,1998,2003,2009,2013,
            Gaussian, Inc.  All Rights Reserved.
  
 This is part of the Gaussian(R) 09 program.  It is based on
 the Gaussian(R) 03 system (copyright 2003, Gaussian, Inc.),
 the Gaussian(R) 98 system (copyright 1998, Gaussian, Inc.),
 the Gaussian(R) 94 system (copyright 1995, Gaussian, Inc.),
 the Gaussian 92(TM) system (copyright 1992, Gaussian, Inc.),
 the Gaussian 90(TM) system (copyright 1990, Gaussian, Inc.),
 the Gaussian 88(TM) system (copyright 1988, Gaussian, Inc.),
 the Gaussian 86(TM) system (copyright 1986, Carnegie Mellon
 University), and the Gaussian 82(TM) system (copyright 1983,
 Carnegie Mellon University). Gaussian is a federally registered
 trademark of Gaussian, Inc.
  
 This software contains proprietary and confidential information,
 including trade secrets, belonging to Gaussian, Inc.
  
 This software is provided under written license and may be
 used, copied, transmitted, or stored only in accord with that
 written license.
  
 The following legend is applicable only to US Government
 contracts under FAR:
  
                    RESTRICTED RIGHTS LEGEND
  
 Use, reproduction and disclosure by the US Government is
 subject to restrictions as set forth in subparagraphs (a)
 and (c) of the Commercial Computer Software - Restricted
 Rights clause in FAR 52.227-19.
  
 Gaussian, Inc.
 340 Quinnipiac St., Bldg. 40, Wallingford CT 06492
  
  
 ---------------------------------------------------------------
 Warning -- This program may not be used in any manner that
 competes with the business of Gaussian, Inc. or will provide
 assistance to any competitor of Gaussian, Inc.  The licensee
 of this program is prohibited from giving any competitor of
 Gaussian, Inc. access to this program.  By using this program,
 the user acknowledges that Gaussian, Inc. is engaged in the
 business of creating and licensing software in the field of
 computational chemistry and represents and warrants to the
 licensee that it is not a competitor of Gaussian, Inc. and that
 it will not use this program in any manner prohibited above.
 ---------------------------------------------------------------
  

 Cite this work as:
 Gaussian 09, Revision D.01,
 M. J. Frisch, G. W. Trucks, H. B. Schlegel, G. E. Scuseria, 
 M. A. Robb, J. R. Cheeseman, G. Scalmani, V. Barone, B. Mennucci, 
 G. A. Petersson, H. Nakatsuji, M. Caricato, X. Li, H. P. Hratchian, 
 A. F. Izmaylov, J. Bloino, G. Zheng, J. L. Sonnenberg, M. Hada, 
 M. Ehara, K. Toyota, R. Fukuda, J. Hasegawa, M. Ishida, T. Nakajima, 
 Y. Honda, O. Kitao, H. Nakai, T. Vreven, J. A. Montgomery, Jr., 
 J. E. Peralta, F. Ogliaro, M. Bearpark, J. J. Heyd, E. Brothers, 
 K. N. Kudin, V. N. Staroverov, T. Keith, R. Kobayashi, J. Normand, 
 K. Raghavachari, A. Rendell, J. C. Burant, S. S. Iyengar, J. Tomasi, 
 M. Cossi, N. Rega, J. M. Millam, M. Klene, J. E. Knox, J. B. Cross, 
 V. Bakken, C. Adamo, J. Jaramillo, R. Gomperts, R. E. Stratmann, 
 O. Yazyev, A. J. Austin, R. Cammi, C. Pomelli, J. W. Ochterski, 
 R. L. Martin, K. Morokuma, V. G. Zakrzewski, G. A. Voth, 
 P. Salvador, J. J. Dannenberg, S. Dapprich, A. D. Daniels, 
 O. Farkas, J. B. Foresman, J. V. Ortiz, J. Cioslowski, 
 and D. J. Fox, Gaussian, Inc., Wallingford CT, 2013.
 
 ******************************************
 Gaussian 09:  AS64L-G09RevD.01 24-Apr-2013
                 5-Dec-2018 
 ******************************************
 %Chk=CH400188
 %Mem=2GB
 %NProcShared=16
 Will use up to   16 processors via shared memory.
 -----------------------------------------------------------
 #T M05/Gen test Massage Symmetry=None SCF=(tight,maxcyc=60)
 -----------------------------------------------------------
 -------
 M05 opt
 -------
 Symbolic Z-matrix:
 Charge =  0 Multiplicity = 1
 6                     0.        0.        0. 
 1                     0.95739   0.        0.55623 
 1                    -0.70871   0.69881   0.48515 
 1                     0.17968   0.32221  -1.04397 
 1                    -0.42836  -1.02102   0.0026 
 6-Bq                  0.        0.        3.7363 
 1-Bq                 -0.51768  -0.97853   3.75816 
 1-Bq                 -0.61678   0.73149   3.17908 
 1-Bq                  0.15327   0.35968   4.77222 
 1-Bq                  0.98119  -0.11265   3.23575 
 
                    Distance matrix (angstroms):
                    1          2          3          4          5
     1  C    0.000000
     2  H    1.107243   0.000000
     3  H    1.107243   1.808119   0.000000
     4  H    1.107242   1.808119   1.808119   0.000000
     5  H    1.107243   1.808119   1.808119   1.808119   0.000000
     6  C    3.736300   3.321065   3.400085   4.794489   3.894422
     7  H    3.917814   3.658652   3.682734   5.023814   3.756864
     8  H    3.319946   3.145228   2.695694   4.316948   3.632745
     9  H    4.788205   4.307037   4.385994   5.816371   4.999391
    10  H    3.383118   2.681994   3.328667   4.375790   3.642149
                    6          7          8          9         10
     6  C    0.000000
     7  H    1.107242   0.000000
     8  H    1.107243   1.808119   0.000000
     9  H    1.107243   1.808119   1.808119   0.000000
    10  H    1.107242   1.808119   1.808119   1.808119   0.000000
 Symmetry turned off by external request.
 Rotational constants (GHZ):     76.6916056      4.2652426      4.2652426
   276 basis functions,   360 primitive gaussians,   310 cartesian basis functions
     5 alpha electrons        5 beta electrons
       nuclear repulsion energy        13.2261669986 Hartrees.
 IMHF & INEx in M05                  614413                  385587
 NAtoms=   10 NActive=   10 NUniq=   10 SFac= 1.00D+00 NAtFMM=   60 NAOKFM=F Big=F
 ExpMin= 2.53D-02 ExpMax= 8.24D+03 ExpMxC= 2.81D+02 IAcc=3 IRadAn=         5 AccDes= 0.00D+00
 Harris functional with IExCor= 1009 and IRadAn=       5 diagonalized for initial guess.
 HarFok:  IExCor= 1009 AccDes= 0.00D+00 IRadAn=         5 IDoV= 1 UseB2=F ITyADJ=14
 ICtDFT=  3500011 ScaDFX=  1.000000  1.000000  1.000000  1.000000
 FoFCou: FMM=F IPFlag=           0 FMFlag=      100000 FMFlg1=           0
         NFxFlg=           0 DoJE=T BraDBF=F KetDBF=T FulRan=T
         wScrn=  0.000000 ICntrl=     500 IOpCl=  0 I1Cent=   200000004 NGrid=           0
         NMat0=    1 NMatS0=      1 NMatT0=    0 NMatD0=    1 NMtDS0=    0 NMtDT0=    0
 Symmetry not used in FoFCou.
 SCF Done:  E(RM05) =  -44.9242877195     A.U. after   10 cycles
            NFock= 10  Conv=0.20D-08     -V/T= 2.0281

 **********************************************************************

            Population analysis using the SCF density.

 **********************************************************************

 Alpha  occ. eigenvalues --  -11.79330  -0.95365  -0.65714  -0.65713  -0.65712
 Alpha virt. eigenvalues --   -0.07443  -0.00624  -0.00569  -0.00563   0.01193
 Alpha virt. eigenvalues --    0.01600   0.01709   0.03446   0.04325   0.04988
 Alpha virt. eigenvalues --    0.05876   0.06512   0.07200   0.07872   0.08433
 Alpha virt. eigenvalues --    0.09164   0.10170   0.10908   0.12548   0.12800
 Alpha virt. eigenvalues --    0.15898   0.18959   0.19350   0.19715   0.20356
 Alpha virt. eigenvalues --    0.20680   0.20885   0.21830   0.22358   0.23486
 Alpha virt. eigenvalues --    0.24475   0.25744   0.26220   0.26935   0.27290
 Alpha virt. eigenvalues --    0.27839   0.27889   0.30370   0.30474   0.31597
 Alpha virt. eigenvalues --    0.32465   0.33618   0.34339   0.35427   0.35913
 Alpha virt. eigenvalues --    0.37972   0.38207   0.38566   0.40325   0.41145
 Alpha virt. eigenvalues --    0.42254   0.43254   0.46131   0.48436   0.48969
 Alpha virt. eigenvalues --    0.50899   0.50982   0.53191   0.54167   0.54940
 Alpha virt. eigenvalues --    0.56544   0.58427   0.59106   0.60772   0.61221
 Alpha virt. eigenvalues --    0.62755   0.64729   0.65618   0.66127   0.67374
 Alpha virt. eigenvalues --    0.68701   0.71173   0.72708   0.73186   0.74134
 Alpha virt. eigenvalues --    0.75134   0.76433   0.77309   0.80185   0.81620
 Alpha virt. eigenvalues --    0.81901   0.82634   0.84773   0.87582   0.88360
 Alpha virt. eigenvalues --    0.89478   0.93002   0.93244   0.94153   0.94897
 Alpha virt. eigenvalues --    0.95410   0.96981   0.97917   0.98535   0.98981
 Alpha virt. eigenvalues --    1.01657   1.03004   1.03954   1.04524   1.05563
 Alpha virt. eigenvalues --    1.06359   1.07913   1.08471   1.09416   1.09792
 Alpha virt. eigenvalues --    1.12069   1.15655   1.16157   1.20065   1.20123
 Alpha virt. eigenvalues --    1.23066   1.23856   1.24391   1.27894   1.29459
 Alpha virt. eigenvalues --    1.30310   1.31311   1.32399   1.32641   1.34107
 Alpha virt. eigenvalues --    1.35502   1.36357   1.38337   1.39248   1.40271
 Alpha virt. eigenvalues --    1.42997   1.44160   1.44872   1.46662   1.49438
 Alpha virt. eigenvalues --    1.52184   1.53031   1.53868   1.56941   1.59766
 Alpha virt. eigenvalues --    1.63818   1.64250   1.68625   1.71279   1.74212
 Alpha virt. eigenvalues --    1.79362   1.80404   1.80597   1.83692   1.86131
 Alpha virt. eigenvalues --    1.86595   1.88408   1.94863   1.95547   1.97525
 Alpha virt. eigenvalues --    2.00324   2.00695   2.04765   2.05485   2.08417
 Alpha virt. eigenvalues --    2.11742   2.19730   2.27737   2.28182   2.33480
 Alpha virt. eigenvalues --    2.44708   2.45969   2.47711   2.58016   2.58292
 Alpha virt. eigenvalues --    2.63564   2.68307   2.68858   2.71675   2.83007
 Alpha virt. eigenvalues --    3.04723   3.04966   3.06697   3.07519   3.09611
 Alpha virt. eigenvalues --    3.11429   3.13777   3.15020   3.30038   3.30675
 Alpha virt. eigenvalues --    3.32199   3.50616   3.51591   3.53256   3.55539
 Alpha virt. eigenvalues --    3.56142   3.57563   3.61022   3.64174   3.64905
 Alpha virt. eigenvalues --    3.72762   3.97491   3.97918   3.98350   3.99796
 Alpha virt. eigenvalues --    4.00122   4.02298   4.02762   4.04434   4.07859
 Alpha virt. eigenvalues --    4.09261   4.10691   4.12599   4.13665   4.17262
 Alpha virt. eigenvalues --    4.19735   4.20477   4.25206   4.26806   4.29433
 Alpha virt. eigenvalues --    4.35668   4.38942   4.39548   4.42586   4.46464
 Alpha virt. eigenvalues --    4.48180   4.49040   4.52674   4.54138   4.54656
 Alpha virt. eigenvalues --    4.55646   4.57161   4.59214   4.61697   4.65203
 Alpha virt. eigenvalues --    4.76609   4.90219   4.91280   4.92795   4.94456
 Alpha virt. eigenvalues --    4.96443   4.96902   4.97782   5.08469   5.09527
 Alpha virt. eigenvalues --    5.13302   5.15889   5.18135   5.25157   5.25477
 Alpha virt. eigenvalues --    5.26730   5.28788   5.29298   5.32144   5.40418
 Alpha virt. eigenvalues --    5.41700   5.47198   5.47290   5.49109   5.55169
 Alpha virt. eigenvalues --    5.72060   5.72610   5.76586   6.13436   6.14396
 Alpha virt. eigenvalues --    6.14627   6.23161   6.23180   6.81183   6.81596
 Alpha virt. eigenvalues --    6.81854   6.97053   7.64309   7.65448   7.68694
 Alpha virt. eigenvalues --    8.05729   8.06361   8.09964  10.30160  15.35786
 Alpha virt. eigenvalues --   52.47104
          Condensed to atoms (all electrons):
 Mulliken charges:
               1
     1  C   -0.343479
     2  H    0.176747
     3  H    0.145524
     4  H   -0.100611
     5  H    0.123164
     6  C   -0.016179
     7  H   -0.001828
     8  H    0.009879
     9  H    0.001496
    10  H    0.005287
 Sum of Mulliken charges =  -0.00000
 Mulliken charges with hydrogens summed into heavy atoms:
               1
     1  C    0.001345
     6  C   -0.001345
 Electronic spatial extent (au):  <R**2>=             36.0925
 Charge=             -0.0000 electrons
 Dipole moment (field-independent basis, Debye):
    X=              0.0000    Y=             -0.0001    Z=              0.0001  Tot=              0.0001

 Test job not archived.
 1\1\GINC-CHIMERA-NODE45\SP\RM05\Gen\C2H8\CONNORNM\05-Dec-2018\0\\#T M0
 5/Gen test Massage Symmetry=None SCF=(tight,maxcyc=60)\\M05 opt\\0,1\C
 ,0,0.,0.,0.\H,0,0.95739189,0.,0.55622543\H,0,-0.70871265,0.69881334,0.
 48515178\H,0,0.17967881,0.32220997,-1.04397424\H,0,-0.42835804,-1.0210
 2331,0.00259703\C,0,0.,0.,3.73630032\H,0,-0.51768245,-0.97852596,3.758
 15841\H,0,-0.61678074,0.73148675,3.17907989\H,0,0.15326846,0.35968462,
 4.7722162\H,0,0.98119474,-0.11264541,3.23574678\\Version=AS64L-G09RevD
 .01\HF=-44.9242877\RMSD=1.971e-09\Dipole=0.0000073,-0.0000291,0.000049
 2\Quadrupole=-0.0004486,-0.0013138,0.0017624,-0.0001805,-0.0005159,-0.
 0009723\PG=Unknown\\@


 Make no judgements where you have no compassion.
                               -- Anne McCaffrey
 Job cpu time:       0 days  0 hours 16 minutes 35.9 seconds.
 File lengths (MBytes):  RWF=     41 Int=      0 D2E=      0 Chk=      4 Scr=      1
 Normal termination of Gaussian 09 at Wed Dec  5 22:05:03 2018.
