 Entering Gaussian System, Link 0=/data/szalewicgrp/connornm/opt/Gaussian/g09-M05-par/g09/g09
 AtFile(1): aug-cc-pVTZ.gbs
 Initial command:
 /data/szalewicgrp/connornm/opt/Gaussian/g09-M05-par/g09/l1.exe "/scratch/local/Gau-33211.inp" -scrdir="/scratch/local/"
 Entering Link 1 = /data/szalewicgrp/connornm/opt/Gaussian/g09-M05-par/g09/l1.exe PID=     33212.
  
 Copyright (c) 1988,1990,1992,1993,1995,1998,2003,2009,2013,
            Gaussian, Inc.  All Rights Reserved.
  
 This is part of the Gaussian(R) 09 program.  It is based on
 the Gaussian(R) 03 system (copyright 2003, Gaussian, Inc.),
 the Gaussian(R) 98 system (copyright 1998, Gaussian, Inc.),
 the Gaussian(R) 94 system (copyright 1995, Gaussian, Inc.),
 the Gaussian 92(TM) system (copyright 1992, Gaussian, Inc.),
 the Gaussian 90(TM) system (copyright 1990, Gaussian, Inc.),
 the Gaussian 88(TM) system (copyright 1988, Gaussian, Inc.),
 the Gaussian 86(TM) system (copyright 1986, Carnegie Mellon
 University), and the Gaussian 82(TM) system (copyright 1983,
 Carnegie Mellon University). Gaussian is a federally registered
 trademark of Gaussian, Inc.
  
 This software contains proprietary and confidential information,
 including trade secrets, belonging to Gaussian, Inc.
  
 This software is provided under written license and may be
 used, copied, transmitted, or stored only in accord with that
 written license.
  
 The following legend is applicable only to US Government
 contracts under FAR:
  
                    RESTRICTED RIGHTS LEGEND
  
 Use, reproduction and disclosure by the US Government is
 subject to restrictions as set forth in subparagraphs (a)
 and (c) of the Commercial Computer Software - Restricted
 Rights clause in FAR 52.227-19.
  
 Gaussian, Inc.
 340 Quinnipiac St., Bldg. 40, Wallingford CT 06492
  
  
 ---------------------------------------------------------------
 Warning -- This program may not be used in any manner that
 competes with the business of Gaussian, Inc. or will provide
 assistance to any competitor of Gaussian, Inc.  The licensee
 of this program is prohibited from giving any competitor of
 Gaussian, Inc. access to this program.  By using this program,
 the user acknowledges that Gaussian, Inc. is engaged in the
 business of creating and licensing software in the field of
 computational chemistry and represents and warrants to the
 licensee that it is not a competitor of Gaussian, Inc. and that
 it will not use this program in any manner prohibited above.
 ---------------------------------------------------------------
  

 Cite this work as:
 Gaussian 09, Revision D.01,
 M. J. Frisch, G. W. Trucks, H. B. Schlegel, G. E. Scuseria, 
 M. A. Robb, J. R. Cheeseman, G. Scalmani, V. Barone, B. Mennucci, 
 G. A. Petersson, H. Nakatsuji, M. Caricato, X. Li, H. P. Hratchian, 
 A. F. Izmaylov, J. Bloino, G. Zheng, J. L. Sonnenberg, M. Hada, 
 M. Ehara, K. Toyota, R. Fukuda, J. Hasegawa, M. Ishida, T. Nakajima, 
 Y. Honda, O. Kitao, H. Nakai, T. Vreven, J. A. Montgomery, Jr., 
 J. E. Peralta, F. Ogliaro, M. Bearpark, J. J. Heyd, E. Brothers, 
 K. N. Kudin, V. N. Staroverov, T. Keith, R. Kobayashi, J. Normand, 
 K. Raghavachari, A. Rendell, J. C. Burant, S. S. Iyengar, J. Tomasi, 
 M. Cossi, N. Rega, J. M. Millam, M. Klene, J. E. Knox, J. B. Cross, 
 V. Bakken, C. Adamo, J. Jaramillo, R. Gomperts, R. E. Stratmann, 
 O. Yazyev, A. J. Austin, R. Cammi, C. Pomelli, J. W. Ochterski, 
 R. L. Martin, K. Morokuma, V. G. Zakrzewski, G. A. Voth, 
 P. Salvador, J. J. Dannenberg, S. Dapprich, A. D. Daniels, 
 O. Farkas, J. B. Foresman, J. V. Ortiz, J. Cioslowski, 
 and D. J. Fox, Gaussian, Inc., Wallingford CT, 2013.
 
 ******************************************
 Gaussian 09:  AS64L-G09RevD.01 24-Apr-2013
                 5-Dec-2018 
 ******************************************
 %Chk=CH400119
 %Mem=2GB
 %NProcShared=16
 Will use up to   16 processors via shared memory.
 -----------------------------------------------------------
 #T M05/Gen test Massage Symmetry=None SCF=(tight,maxcyc=60)
 -----------------------------------------------------------
 -------
 M05 opt
 -------
 Symbolic Z-matrix:
 Charge =  0 Multiplicity = 1
 6                     0.        0.        0. 
 1                     1.08465   0.        0.22253 
 1                    -0.51145   0.7304    0.65645 
 1                    -0.15947   0.28072  -1.05913 
 1                    -0.41373  -1.01112   0.18014 
 6-Bq                  0.        0.        2.93902 
 1-Bq                 -0.27815  -1.06566   3.05302 
 1-Bq                 -0.9106    0.6273    2.99642 
 1-Bq                  0.69816   0.28789   3.74876 
 1-Bq                  0.49059   0.15047   1.95786 
 
                    Distance matrix (angstroms):
                    1          2          3          4          5
     1  C    0.000000
     2  H    1.107243   0.000000
     3  H    1.107242   1.808119   0.000000
     4  H    1.107242   1.808119   1.808119   0.000000
     5  H    1.107243   1.808119   1.808119   1.808119   0.000000
     6  C    2.939016   2.925019   2.450545   4.011157   2.967308
     7  H    3.245602   3.317303   3.003963   4.328578   2.876594
     8  H    3.193938   3.474042   2.376010   4.139056   3.295866
     9  H    3.824069   3.559006   3.349829   4.883785   3.957112
    10  H    2.023989   1.840354   1.741856   3.088972   2.308106
                    6          7          8          9         10
     6  C    0.000000
     7  H    1.107243   0.000000
     8  H    1.107242   1.808119   0.000000
     9  H    1.107243   1.808119   1.808119   0.000000
    10  H    1.107243   1.808119   1.808119   1.808119   0.000000
 Symmetry turned off by external request.
 Rotational constants (GHZ):     76.6916055      6.6648535      6.6648535
   276 basis functions,   360 primitive gaussians,   310 cartesian basis functions
     5 alpha electrons        5 beta electrons
       nuclear repulsion energy        13.2261669956 Hartrees.
 IMHF & INEx in M05                  614413                  385587
 NAtoms=   10 NActive=   10 NUniq=   10 SFac= 1.00D+00 NAtFMM=   60 NAOKFM=F Big=F
 ExpMin= 2.53D-02 ExpMax= 8.24D+03 ExpMxC= 2.81D+02 IAcc=3 IRadAn=         5 AccDes= 0.00D+00
 Harris functional with IExCor= 1009 and IRadAn=       5 diagonalized for initial guess.
 HarFok:  IExCor= 1009 AccDes= 0.00D+00 IRadAn=         5 IDoV= 1 UseB2=F ITyADJ=14
 ICtDFT=  3500011 ScaDFX=  1.000000  1.000000  1.000000  1.000000
 FoFCou: FMM=F IPFlag=           0 FMFlag=      100000 FMFlg1=           0
         NFxFlg=           0 DoJE=T BraDBF=F KetDBF=T FulRan=T
         wScrn=  0.000000 ICntrl=     500 IOpCl=  0 I1Cent=   200000004 NGrid=           0
         NMat0=    1 NMatS0=      1 NMatT0=    0 NMatD0=    1 NMtDS0=    0 NMtDT0=    0
 Symmetry not used in FoFCou.
 SCF Done:  E(RM05) =  -40.9122951114     A.U. after    7 cycles
            NFock=  7  Conv=0.68D-08     -V/T= 2.0127

 **********************************************************************

            Population analysis using the SCF density.

 **********************************************************************

 Alpha  occ. eigenvalues --  -10.74531  -0.82768  -0.48753  -0.48752  -0.48752
 Alpha virt. eigenvalues --   -0.00126   0.02388   0.02852   0.02893   0.04710
 Alpha virt. eigenvalues --    0.05322   0.05653   0.07171   0.08318   0.08964
 Alpha virt. eigenvalues --    0.09338   0.10745   0.10886   0.11554   0.12867
 Alpha virt. eigenvalues --    0.13314   0.15380   0.15613   0.17411   0.19690
 Alpha virt. eigenvalues --    0.21639   0.21985   0.22813   0.25123   0.26081
 Alpha virt. eigenvalues --    0.26343   0.27060   0.27654   0.28162   0.28931
 Alpha virt. eigenvalues --    0.29313   0.30367   0.31571   0.32704   0.33086
 Alpha virt. eigenvalues --    0.33395   0.35077   0.35565   0.36408   0.36506
 Alpha virt. eigenvalues --    0.37492   0.38092   0.39826   0.40915   0.42175
 Alpha virt. eigenvalues --    0.43144   0.43855   0.44489   0.46141   0.46988
 Alpha virt. eigenvalues --    0.48149   0.50084   0.52633   0.53297   0.53342
 Alpha virt. eigenvalues --    0.55373   0.55668   0.59979   0.61261   0.61977
 Alpha virt. eigenvalues --    0.63263   0.65581   0.66094   0.67983   0.70807
 Alpha virt. eigenvalues --    0.72666   0.73612   0.75219   0.77485   0.77854
 Alpha virt. eigenvalues --    0.81023   0.82017   0.83242   0.84174   0.85874
 Alpha virt. eigenvalues --    0.86700   0.87573   0.89576   0.92764   0.93399
 Alpha virt. eigenvalues --    0.94331   0.95905   0.97496   0.99013   0.99653
 Alpha virt. eigenvalues --    1.00254   1.00426   1.01281   1.01942   1.03820
 Alpha virt. eigenvalues --    1.04621   1.05615   1.05936   1.08747   1.09488
 Alpha virt. eigenvalues --    1.11110   1.12416   1.12906   1.13143   1.15342
 Alpha virt. eigenvalues --    1.15852   1.18177   1.19535   1.21134   1.21878
 Alpha virt. eigenvalues --    1.23583   1.25215   1.26595   1.28114   1.30802
 Alpha virt. eigenvalues --    1.32736   1.34538   1.34744   1.36584   1.38953
 Alpha virt. eigenvalues --    1.41102   1.42245   1.45432   1.45868   1.46564
 Alpha virt. eigenvalues --    1.47674   1.49858   1.51951   1.53739   1.55786
 Alpha virt. eigenvalues --    1.59855   1.61143   1.62369   1.65430   1.67011
 Alpha virt. eigenvalues --    1.68831   1.70233   1.72497   1.75033   1.76887
 Alpha virt. eigenvalues --    1.81931   1.82933   1.83760   1.87189   1.88337
 Alpha virt. eigenvalues --    1.89146   1.91762   1.93331   1.95516   1.98457
 Alpha virt. eigenvalues --    1.99554   2.00080   2.02963   2.03625   2.05210
 Alpha virt. eigenvalues --    2.08847   2.09324   2.13327   2.18367   2.22021
 Alpha virt. eigenvalues --    2.26611   2.31358   2.34048   2.39879   2.46084
 Alpha virt. eigenvalues --    2.46472   2.58440   2.64510   2.66394   2.68855
 Alpha virt. eigenvalues --    2.93568   2.97255   3.00363   3.03009   3.07147
 Alpha virt. eigenvalues --    3.24041   3.27302   3.28199   3.29929   3.33734
 Alpha virt. eigenvalues --    3.39191   3.45125   3.50472   3.58580   3.60550
 Alpha virt. eigenvalues --    3.63474   3.73197   3.73598   3.75618   3.79250
 Alpha virt. eigenvalues --    3.80134   3.83329   3.85160   3.87496   3.88466
 Alpha virt. eigenvalues --    3.94284   4.01608   4.02624   4.04937   4.07901
 Alpha virt. eigenvalues --    4.15166   4.18797   4.19781   4.20707   4.22330
 Alpha virt. eigenvalues --    4.24903   4.26458   4.29814   4.33446   4.35195
 Alpha virt. eigenvalues --    4.36682   4.38845   4.42299   4.44516   4.45235
 Alpha virt. eigenvalues --    4.49080   4.49582   4.51579   4.55336   4.55957
 Alpha virt. eigenvalues --    4.57084   4.59137   4.63380   4.67141   4.74973
 Alpha virt. eigenvalues --    4.77650   4.82908   4.83097   4.84051   4.88781
 Alpha virt. eigenvalues --    4.91358   4.93417   4.97827   5.06964   5.12526
 Alpha virt. eigenvalues --    5.13274   5.16188   5.17624   5.22873   5.24059
 Alpha virt. eigenvalues --    5.25396   5.28050   5.30628   5.33705   5.38160
 Alpha virt. eigenvalues --    5.39435   5.42617   5.44411   5.48238   5.50126
 Alpha virt. eigenvalues --    5.60842   5.63456   5.65620   5.66927   5.88129
 Alpha virt. eigenvalues --    6.06868   6.10276   6.10931   6.12567   6.17026
 Alpha virt. eigenvalues --    6.18962   6.20784   6.24149   6.77686   6.79425
 Alpha virt. eigenvalues --    6.92754   6.99556   7.61507   7.63038   7.66934
 Alpha virt. eigenvalues --    7.99855   8.04823   8.17554  10.38641  17.38806
 Alpha virt. eigenvalues --   53.44495
          Condensed to atoms (all electrons):
 Mulliken charges:
               1
     1  C   -2.042423
     2  H    0.497741
     3  H    0.580497
     4  H    0.426780
     5  H    0.507556
     6  C    0.021398
     7  H   -0.002830
     8  H    0.001639
     9  H    0.008595
    10  H    0.001048
 Sum of Mulliken charges =   0.00000
 Mulliken charges with hydrogens summed into heavy atoms:
               1
     1  C   -0.029850
     6  C    0.029850
 Electronic spatial extent (au):  <R**2>=             36.5415
 Charge=             -0.0000 electrons
 Dipole moment (field-independent basis, Debye):
    X=             -0.0001    Y=             -0.0000    Z=              0.0001  Tot=              0.0001

 Test job not archived.
 1\1\GINC-CHIMERA-NODE10\SP\RM05\Gen\C2H8\CONNORNM\05-Dec-2018\0\\#T M0
 5/Gen test Massage Symmetry=None SCF=(tight,maxcyc=60)\\M05 opt\\0,1\C
 ,0,0.,0.,0.\H,0,1.08464944,0.,0.22253438\H,0,-0.51145054,0.73039613,0.
 65644938\H,0,-0.15947079,0.28072382,-1.0591266\H,0,-0.41372811,-1.0111
 1996,0.18014284\C,0,0.,0.,2.93901632\H,0,-0.2781473,-1.06565599,3.0530
 2223\H,0,-0.91059573,0.62730042,2.99642317\H,0,0.69815598,0.28788598,3
 .74876063\H,0,0.49058706,0.15046959,1.95785925\\Version=AS64L-G09RevD.
 01\HF=-40.9122951\RMSD=6.846e-09\Dipole=-0.0000236,-0.000003,0.0000337
 \Quadrupole=-0.0006546,0.0001146,0.00054,-0.0003255,-0.0000752,-0.0001
 577\PG=Unknown\\@


 BRING ME INTO THE COMPANY OF THOSE WHO SEEK TRUTH,
 AND DELIVER ME FROM THOSE WHO HAVE FOUND IT.
 Job cpu time:       0 days  0 hours 19 minutes 58.3 seconds.
 File lengths (MBytes):  RWF=     41 Int=      0 D2E=      0 Chk=      4 Scr=      1
 Normal termination of Gaussian 09 at Wed Dec  5 21:55:10 2018.
