 Entering Gaussian System, Link 0=/data/szalewicgrp/connornm/opt/Gaussian/g09-M05-par/g09/g09
 AtFile(1): aug-cc-pVTZ.gbs
 Initial command:
 /data/szalewicgrp/connornm/opt/Gaussian/g09-M05-par/g09/l1.exe "/scratch/local/Gau-11642.inp" -scrdir="/scratch/local/"
 Entering Link 1 = /data/szalewicgrp/connornm/opt/Gaussian/g09-M05-par/g09/l1.exe PID=     11643.
  
 Copyright (c) 1988,1990,1992,1993,1995,1998,2003,2009,2013,
            Gaussian, Inc.  All Rights Reserved.
  
 This is part of the Gaussian(R) 09 program.  It is based on
 the Gaussian(R) 03 system (copyright 2003, Gaussian, Inc.),
 the Gaussian(R) 98 system (copyright 1998, Gaussian, Inc.),
 the Gaussian(R) 94 system (copyright 1995, Gaussian, Inc.),
 the Gaussian 92(TM) system (copyright 1992, Gaussian, Inc.),
 the Gaussian 90(TM) system (copyright 1990, Gaussian, Inc.),
 the Gaussian 88(TM) system (copyright 1988, Gaussian, Inc.),
 the Gaussian 86(TM) system (copyright 1986, Carnegie Mellon
 University), and the Gaussian 82(TM) system (copyright 1983,
 Carnegie Mellon University). Gaussian is a federally registered
 trademark of Gaussian, Inc.
  
 This software contains proprietary and confidential information,
 including trade secrets, belonging to Gaussian, Inc.
  
 This software is provided under written license and may be
 used, copied, transmitted, or stored only in accord with that
 written license.
  
 The following legend is applicable only to US Government
 contracts under FAR:
  
                    RESTRICTED RIGHTS LEGEND
  
 Use, reproduction and disclosure by the US Government is
 subject to restrictions as set forth in subparagraphs (a)
 and (c) of the Commercial Computer Software - Restricted
 Rights clause in FAR 52.227-19.
  
 Gaussian, Inc.
 340 Quinnipiac St., Bldg. 40, Wallingford CT 06492
  
  
 ---------------------------------------------------------------
 Warning -- This program may not be used in any manner that
 competes with the business of Gaussian, Inc. or will provide
 assistance to any competitor of Gaussian, Inc.  The licensee
 of this program is prohibited from giving any competitor of
 Gaussian, Inc. access to this program.  By using this program,
 the user acknowledges that Gaussian, Inc. is engaged in the
 business of creating and licensing software in the field of
 computational chemistry and represents and warrants to the
 licensee that it is not a competitor of Gaussian, Inc. and that
 it will not use this program in any manner prohibited above.
 ---------------------------------------------------------------
  

 Cite this work as:
 Gaussian 09, Revision D.01,
 M. J. Frisch, G. W. Trucks, H. B. Schlegel, G. E. Scuseria, 
 M. A. Robb, J. R. Cheeseman, G. Scalmani, V. Barone, B. Mennucci, 
 G. A. Petersson, H. Nakatsuji, M. Caricato, X. Li, H. P. Hratchian, 
 A. F. Izmaylov, J. Bloino, G. Zheng, J. L. Sonnenberg, M. Hada, 
 M. Ehara, K. Toyota, R. Fukuda, J. Hasegawa, M. Ishida, T. Nakajima, 
 Y. Honda, O. Kitao, H. Nakai, T. Vreven, J. A. Montgomery, Jr., 
 J. E. Peralta, F. Ogliaro, M. Bearpark, J. J. Heyd, E. Brothers, 
 K. N. Kudin, V. N. Staroverov, T. Keith, R. Kobayashi, J. Normand, 
 K. Raghavachari, A. Rendell, J. C. Burant, S. S. Iyengar, J. Tomasi, 
 M. Cossi, N. Rega, J. M. Millam, M. Klene, J. E. Knox, J. B. Cross, 
 V. Bakken, C. Adamo, J. Jaramillo, R. Gomperts, R. E. Stratmann, 
 O. Yazyev, A. J. Austin, R. Cammi, C. Pomelli, J. W. Ochterski, 
 R. L. Martin, K. Morokuma, V. G. Zakrzewski, G. A. Voth, 
 P. Salvador, J. J. Dannenberg, S. Dapprich, A. D. Daniels, 
 O. Farkas, J. B. Foresman, J. V. Ortiz, J. Cioslowski, 
 and D. J. Fox, Gaussian, Inc., Wallingford CT, 2013.
 
 ******************************************
 Gaussian 09:  AS64L-G09RevD.01 24-Apr-2013
                 5-Dec-2018 
 ******************************************
 %Chk=CH400214
 %Mem=2GB
 %NProcShared=16
 Will use up to   16 processors via shared memory.
 -----------------------------------------------------------
 #T M05/Gen test Massage Symmetry=None SCF=(tight,maxcyc=60)
 -----------------------------------------------------------
 -------
 M05 opt
 -------
 Symbolic Z-matrix:
 Charge =  0 Multiplicity = 1
 6                     0.        0.        0. 
 1                     0.59941   0.       -0.93097 
 1                    -0.80125   0.76031  -0.07692 
 1                    -0.45269  -0.99965   0.1475 
 1                     0.65454   0.23934   0.86039 
 6-Bq                  0.        0.        4.63154 
 1-Bq                  0.41175   0.257     5.62673 
 1-Bq                  0.67506  -0.71819   4.12707 
 1-Bq                 -1.00103  -0.45732   4.75316 
 1-Bq                 -0.08578   0.91851   4.01919 
 
                    Distance matrix (angstroms):
                    1          2          3          4          5
     1  C    0.000000
     2  H    1.107242   0.000000
     3  H    1.107242   1.808119   0.000000
     4  H    1.107243   1.808119   1.808119   0.000000
     5  H    1.107242   1.808119   1.808119   1.808119   0.000000
     6  C    4.631540   5.594709   4.836289   4.616371   3.835004
     7  H    5.647625   6.565413   5.852891   5.687567   4.772549
     8  H    4.243140   5.109334   4.694574   4.145851   3.404187
     9  H    4.878908   5.922824   4.985203   4.669791   4.287177
    10  H    4.123705   5.081066   4.161143   4.336359   3.314719
                    6          7          8          9         10
     6  C    0.000000
     7  H    1.107243   0.000000
     8  H    1.107243   1.808119   0.000000
     9  H    1.107243   1.808119   1.808119   0.000000
    10  H    1.107242   1.808119   1.808119   1.808119   0.000000
 Symmetry turned off by external request.
 Rotational constants (GHZ):     76.6916055      2.8307037      2.8307037
   276 basis functions,   360 primitive gaussians,   310 cartesian basis functions
     5 alpha electrons        5 beta electrons
       nuclear repulsion energy        13.2261670112 Hartrees.
 IMHF & INEx in M05                  614413                  385587
 NAtoms=   10 NActive=   10 NUniq=   10 SFac= 1.00D+00 NAtFMM=   60 NAOKFM=F Big=F
 ExpMin= 2.53D-02 ExpMax= 8.24D+03 ExpMxC= 2.81D+02 IAcc=3 IRadAn=         5 AccDes= 0.00D+00
 Harris functional with IExCor= 1009 and IRadAn=       5 diagonalized for initial guess.
 HarFok:  IExCor= 1009 AccDes= 0.00D+00 IRadAn=         5 IDoV= 1 UseB2=F ITyADJ=14
 ICtDFT=  3500011 ScaDFX=  1.000000  1.000000  1.000000  1.000000
 FoFCou: FMM=F IPFlag=           0 FMFlag=      100000 FMFlg1=           0
         NFxFlg=           0 DoJE=T BraDBF=F KetDBF=T FulRan=T
         wScrn=  0.000000 ICntrl=     500 IOpCl=  0 I1Cent=   200000004 NGrid=           0
         NMat0=    1 NMatS0=      1 NMatT0=    0 NMatD0=    1 NMtDS0=    0 NMtDT0=    0
 Symmetry not used in FoFCou.
 SCF Done:  E(RM05) =  -40.9122172315     A.U. after    7 cycles
            NFock=  7  Conv=0.34D-08     -V/T= 2.0128

 **********************************************************************

            Population analysis using the SCF density.

 **********************************************************************

 Alpha  occ. eigenvalues --  -10.74528  -0.82767  -0.48751  -0.48751  -0.48751
 Alpha virt. eigenvalues --   -0.00114   0.02262   0.02791   0.02872   0.04329
 Alpha virt. eigenvalues --    0.05045   0.05169   0.06835   0.08074   0.08910
 Alpha virt. eigenvalues --    0.09216   0.10623   0.10901   0.11376   0.11826
 Alpha virt. eigenvalues --    0.13409   0.15190   0.15515   0.16241   0.16752
 Alpha virt. eigenvalues --    0.18896   0.22155   0.23145   0.24399   0.24640
 Alpha virt. eigenvalues --    0.25880   0.26004   0.27323   0.28089   0.28474
 Alpha virt. eigenvalues --    0.29037   0.29499   0.29792   0.30452   0.30791
 Alpha virt. eigenvalues --    0.31897   0.32362   0.33265   0.34543   0.34777
 Alpha virt. eigenvalues --    0.35507   0.36264   0.36836   0.37520   0.38106
 Alpha virt. eigenvalues --    0.38951   0.40664   0.41802   0.42821   0.44386
 Alpha virt. eigenvalues --    0.46611   0.46865   0.47451   0.48107   0.48904
 Alpha virt. eigenvalues --    0.51726   0.54487   0.55646   0.57267   0.58836
 Alpha virt. eigenvalues --    0.59011   0.64758   0.65479   0.66258   0.66841
 Alpha virt. eigenvalues --    0.69269   0.71707   0.71945   0.76436   0.77896
 Alpha virt. eigenvalues --    0.78945   0.81454   0.85021   0.86062   0.86146
 Alpha virt. eigenvalues --    0.87181   0.87676   0.88468   0.89275   0.92064
 Alpha virt. eigenvalues --    0.93405   0.94004   0.94536   0.95257   0.96212
 Alpha virt. eigenvalues --    0.97704   0.98106   0.98808   0.99809   1.00911
 Alpha virt. eigenvalues --    1.01672   1.03164   1.03432   1.03656   1.04480
 Alpha virt. eigenvalues --    1.05218   1.05794   1.06094   1.07459   1.09443
 Alpha virt. eigenvalues --    1.09853   1.10577   1.11278   1.12709   1.13686
 Alpha virt. eigenvalues --    1.14573   1.16296   1.16439   1.18314   1.19644
 Alpha virt. eigenvalues --    1.22007   1.23116   1.23926   1.27440   1.28645
 Alpha virt. eigenvalues --    1.30769   1.37263   1.37593   1.38657   1.39206
 Alpha virt. eigenvalues --    1.40283   1.43905   1.44308   1.44715   1.46666
 Alpha virt. eigenvalues --    1.47249   1.47559   1.49369   1.53615   1.58246
 Alpha virt. eigenvalues --    1.58363   1.60594   1.66904   1.67563   1.69257
 Alpha virt. eigenvalues --    1.69801   1.71198   1.73183   1.75534   1.77745
 Alpha virt. eigenvalues --    1.80495   1.83213   1.84043   1.87317   1.92596
 Alpha virt. eigenvalues --    1.93776   1.95518   1.98672   2.01129   2.01421
 Alpha virt. eigenvalues --    2.03106   2.03762   2.04366   2.06266   2.08176
 Alpha virt. eigenvalues --    2.14549   2.25435   2.27754   2.30575   2.37272
 Alpha virt. eigenvalues --    2.43834   2.46643   2.64710   2.67678   2.68168
 Alpha virt. eigenvalues --    2.70127   2.80669   2.86713   2.88120   2.90228
 Alpha virt. eigenvalues --    3.18737   3.19443   3.21358   3.22596   3.22976
 Alpha virt. eigenvalues --    3.25531   3.27214   3.28535   3.57414   3.57511
 Alpha virt. eigenvalues --    3.58560   3.65470   3.71096   3.71161   3.71728
 Alpha virt. eigenvalues --    3.72911   3.73767   3.74116   3.81134   3.81600
 Alpha virt. eigenvalues --    3.82701   3.98690   3.99377   4.01497   4.02477
 Alpha virt. eigenvalues --    4.03316   4.03478   4.15980   4.17577   4.18117
 Alpha virt. eigenvalues --    4.18515   4.20000   4.32257   4.32807   4.35061
 Alpha virt. eigenvalues --    4.35818   4.35893   4.36577   4.36805   4.40555
 Alpha virt. eigenvalues --    4.42937   4.45669   4.46275   4.49751   4.49978
 Alpha virt. eigenvalues --    4.50347   4.51701   4.56177   4.59714   4.60013
 Alpha virt. eigenvalues --    4.60600   4.74846   4.75187   4.78501   4.78672
 Alpha virt. eigenvalues --    4.79891   4.91391   4.92719   4.93504   5.13994
 Alpha virt. eigenvalues --    5.14283   5.15104   5.15339   5.15612   5.17148
 Alpha virt. eigenvalues --    5.22493   5.29104   5.29543   5.30426   5.32200
 Alpha virt. eigenvalues --    5.32585   5.40616   5.42680   5.47318   5.47971
 Alpha virt. eigenvalues --    5.48159   5.50966   5.57630   5.57743   5.60478
 Alpha virt. eigenvalues --    6.03016   6.04045   6.07121   6.13540   6.14015
 Alpha virt. eigenvalues --    6.14295   6.24035   6.24088   6.80336   6.80625
 Alpha virt. eigenvalues --    6.81702   6.95295   7.64859   7.65469   7.67354
 Alpha virt. eigenvalues --    8.02113   8.03909   8.06734  10.25513  16.60664
 Alpha virt. eigenvalues --   52.11892
          Condensed to atoms (all electrons):
 Mulliken charges:
               1
     1  C   -1.832038
     2  H    0.441232
     3  H    0.442202
     4  H    0.434978
     5  H    0.513421
     6  C    0.000013
     7  H    0.000055
     8  H   -0.000293
     9  H    0.000532
    10  H   -0.000102
 Sum of Mulliken charges =   0.00000
 Mulliken charges with hydrogens summed into heavy atoms:
               1
     1  C   -0.000205
     6  C    0.000205
 Electronic spatial extent (au):  <R**2>=             36.5433
 Charge=              0.0000 electrons
 Dipole moment (field-independent basis, Debye):
    X=              0.0000    Y=              0.0000    Z=             -0.0000  Tot=              0.0000

 Test job not archived.
 1\1\GINC-CHIMERA-NODE51\SP\RM05\Gen\C2H8\CONNORNM\05-Dec-2018\0\\#T M0
 5/Gen test Massage Symmetry=None SCF=(tight,maxcyc=60)\\M05 opt\\0,1\C
 ,0,0.,0.,0.\H,0,0.59940581,0.,-0.9309665\H,0,-0.80125171,0.76030551,-0
 .07692322\H,0,-0.45269489,-0.99964902,0.14749622\H,0,0.65454079,0.2393
 435,0.86039351\C,0,0.,0.,4.63153988\H,0,0.41174577,0.25699982,5.626729
 55\H,0,0.67505779,-0.71819,4.12707376\H,0,-1.00102573,-0.45731987,4.75
 316217\H,0,-0.08577783,0.91851004,4.01919405\\Version=AS64L-G09RevD.01
 \HF=-40.9122172\RMSD=3.391e-09\Dipole=0.0000109,0.0000082,-0.0000086\Q
 uadrupole=0.0008978,-0.000546,-0.0003518,0.0003473,-0.0001742,-0.00001
 49\PG=Unknown\\@


 EXPERIENCE IS THE FRUIT OF THE TREE OF ERRORS.
 Job cpu time:       0 days  0 hours 10 minutes 23.0 seconds.
 File lengths (MBytes):  RWF=     41 Int=      0 D2E=      0 Chk=      4 Scr=      1
 Normal termination of Gaussian 09 at Wed Dec  5 21:43:02 2018.
