 Entering Gaussian System, Link 0=/data/szalewicgrp/connornm/opt/Gaussian/g09-M05-par/g09/g09
 AtFile(1): aug-cc-pVTZ.gbs
 Initial command:
 /data/szalewicgrp/connornm/opt/Gaussian/g09-M05-par/g09/l1.exe "/scratch/local/Gau-32237.inp" -scrdir="/scratch/local/"
 Entering Link 1 = /data/szalewicgrp/connornm/opt/Gaussian/g09-M05-par/g09/l1.exe PID=     32238.
  
 Copyright (c) 1988,1990,1992,1993,1995,1998,2003,2009,2013,
            Gaussian, Inc.  All Rights Reserved.
  
 This is part of the Gaussian(R) 09 program.  It is based on
 the Gaussian(R) 03 system (copyright 2003, Gaussian, Inc.),
 the Gaussian(R) 98 system (copyright 1998, Gaussian, Inc.),
 the Gaussian(R) 94 system (copyright 1995, Gaussian, Inc.),
 the Gaussian 92(TM) system (copyright 1992, Gaussian, Inc.),
 the Gaussian 90(TM) system (copyright 1990, Gaussian, Inc.),
 the Gaussian 88(TM) system (copyright 1988, Gaussian, Inc.),
 the Gaussian 86(TM) system (copyright 1986, Carnegie Mellon
 University), and the Gaussian 82(TM) system (copyright 1983,
 Carnegie Mellon University). Gaussian is a federally registered
 trademark of Gaussian, Inc.
  
 This software contains proprietary and confidential information,
 including trade secrets, belonging to Gaussian, Inc.
  
 This software is provided under written license and may be
 used, copied, transmitted, or stored only in accord with that
 written license.
  
 The following legend is applicable only to US Government
 contracts under FAR:
  
                    RESTRICTED RIGHTS LEGEND
  
 Use, reproduction and disclosure by the US Government is
 subject to restrictions as set forth in subparagraphs (a)
 and (c) of the Commercial Computer Software - Restricted
 Rights clause in FAR 52.227-19.
  
 Gaussian, Inc.
 340 Quinnipiac St., Bldg. 40, Wallingford CT 06492
  
  
 ---------------------------------------------------------------
 Warning -- This program may not be used in any manner that
 competes with the business of Gaussian, Inc. or will provide
 assistance to any competitor of Gaussian, Inc.  The licensee
 of this program is prohibited from giving any competitor of
 Gaussian, Inc. access to this program.  By using this program,
 the user acknowledges that Gaussian, Inc. is engaged in the
 business of creating and licensing software in the field of
 computational chemistry and represents and warrants to the
 licensee that it is not a competitor of Gaussian, Inc. and that
 it will not use this program in any manner prohibited above.
 ---------------------------------------------------------------
  

 Cite this work as:
 Gaussian 09, Revision D.01,
 M. J. Frisch, G. W. Trucks, H. B. Schlegel, G. E. Scuseria, 
 M. A. Robb, J. R. Cheeseman, G. Scalmani, V. Barone, B. Mennucci, 
 G. A. Petersson, H. Nakatsuji, M. Caricato, X. Li, H. P. Hratchian, 
 A. F. Izmaylov, J. Bloino, G. Zheng, J. L. Sonnenberg, M. Hada, 
 M. Ehara, K. Toyota, R. Fukuda, J. Hasegawa, M. Ishida, T. Nakajima, 
 Y. Honda, O. Kitao, H. Nakai, T. Vreven, J. A. Montgomery, Jr., 
 J. E. Peralta, F. Ogliaro, M. Bearpark, J. J. Heyd, E. Brothers, 
 K. N. Kudin, V. N. Staroverov, T. Keith, R. Kobayashi, J. Normand, 
 K. Raghavachari, A. Rendell, J. C. Burant, S. S. Iyengar, J. Tomasi, 
 M. Cossi, N. Rega, J. M. Millam, M. Klene, J. E. Knox, J. B. Cross, 
 V. Bakken, C. Adamo, J. Jaramillo, R. Gomperts, R. E. Stratmann, 
 O. Yazyev, A. J. Austin, R. Cammi, C. Pomelli, J. W. Ochterski, 
 R. L. Martin, K. Morokuma, V. G. Zakrzewski, G. A. Voth, 
 P. Salvador, J. J. Dannenberg, S. Dapprich, A. D. Daniels, 
 O. Farkas, J. B. Foresman, J. V. Ortiz, J. Cioslowski, 
 and D. J. Fox, Gaussian, Inc., Wallingford CT, 2013.
 
 ******************************************
 Gaussian 09:  AS64L-G09RevD.01 24-Apr-2013
                 6-Dec-2018 
 ******************************************
 %Chk=CH400307
 %Mem=2GB
 %NProcShared=16
 Will use up to   16 processors via shared memory.
 -----------------------------------------------------------
 #T M05/Gen test Massage Symmetry=None SCF=(tight,maxcyc=60)
 -----------------------------------------------------------
 -------
 M05 opt
 -------
 Symbolic Z-matrix:
 Charge =  0 Multiplicity = 1
 6                     0.        0.        0. 
 1                     0.61057   0.       -0.92369 
 1                     0.63869  -0.26557   0.8646 
 1                    -0.43277   1.0071    0.15636 
 1                    -0.81649  -0.74153  -0.09728 
 6-Bq                  0.        0.        3.84052 
 1-Bq                  1.10108  -0.11433   3.81738 
 1-Bq                 -0.36355  -0.1368    4.8774 
 1-Bq                 -0.27357   1.01194   3.48399 
 1-Bq                 -0.46396  -0.76081   3.18334 
 
                    Distance matrix (angstroms):
                    1          2          3          4          5
     1  C    0.000000
     2  H    1.107243   0.000000
     3  H    1.107242   1.808119   0.000000
     4  H    1.107243   1.808119   1.808119   0.000000
     5  H    1.107242   1.808119   1.808119   1.808119   0.000000
     6  C    3.840524   4.803174   3.055249   3.843773   4.089356
     7  H    3.974646   4.767739   2.992581   4.124720   4.403974
     8  H    4.892838   5.883890   4.138061   4.858133   5.031725
     9  H    3.638273   4.607959   3.053751   3.331434   4.024291
    10  H    3.305714   4.312899   2.614887   3.505578   3.299563
                    6          7          8          9         10
     6  C    0.000000
     7  H    1.107243   0.000000
     8  H    1.107243   1.808119   0.000000
     9  H    1.107243   1.808119   1.808119   0.000000
    10  H    1.107242   1.808119   1.808119   1.808119   0.000000
 Symmetry turned off by external request.
 Rotational constants (GHZ):     76.6916054      4.0489402      4.0489402
   276 basis functions,   360 primitive gaussians,   310 cartesian basis functions
     5 alpha electrons        5 beta electrons
       nuclear repulsion energy        13.2261669905 Hartrees.
 IMHF & INEx in M05                  614413                  385587
 NAtoms=   10 NActive=   10 NUniq=   10 SFac= 1.00D+00 NAtFMM=   60 NAOKFM=F Big=F
 ExpMin= 2.53D-02 ExpMax= 8.24D+03 ExpMxC= 2.81D+02 IAcc=3 IRadAn=         5 AccDes= 0.00D+00
 Harris functional with IExCor= 1009 and IRadAn=       5 diagonalized for initial guess.
 HarFok:  IExCor= 1009 AccDes= 0.00D+00 IRadAn=         5 IDoV= 1 UseB2=F ITyADJ=14
 ICtDFT=  3500011 ScaDFX=  1.000000  1.000000  1.000000  1.000000
 FoFCou: FMM=F IPFlag=           0 FMFlag=      100000 FMFlg1=           0
         NFxFlg=           0 DoJE=T BraDBF=F KetDBF=T FulRan=T
         wScrn=  0.000000 ICntrl=     500 IOpCl=  0 I1Cent=   200000004 NGrid=           0
         NMat0=    1 NMatS0=      1 NMatT0=    0 NMatD0=    1 NMtDS0=    0 NMtDT0=    0
 Symmetry not used in FoFCou.
 EnCoef did   100 forward-backward iterations
 Restarting incremental Fock formation.
 SCF Done:  E(RM05) =  -47.0981133813     A.U. after   21 cycles
            NFock= 21  Conv=0.44D-08     -V/T= 2.0185

 **********************************************************************

            Population analysis using the SCF density.

 **********************************************************************

 Alpha  occ. eigenvalues --  -11.25579  -0.78134  -0.59335  -0.59326  -0.59324
 Alpha virt. eigenvalues --   -0.27375  -0.22597  -0.22571  -0.22562  -0.18574
 Alpha virt. eigenvalues --   -0.18266  -0.18239  -0.16440  -0.16210  -0.08301
 Alpha virt. eigenvalues --   -0.06774  -0.06235  -0.05901  -0.04548  -0.04184
 Alpha virt. eigenvalues --   -0.03606  -0.03135  -0.00624  -0.00546  -0.00474
 Alpha virt. eigenvalues --    0.01254   0.02976   0.03565   0.04212   0.05050
 Alpha virt. eigenvalues --    0.05673   0.06539   0.06977   0.07189   0.08191
 Alpha virt. eigenvalues --    0.08927   0.09245   0.09688   0.10132   0.11296
 Alpha virt. eigenvalues --    0.11660   0.11945   0.13921   0.14199   0.14354
 Alpha virt. eigenvalues --    0.15872   0.17485   0.18535   0.19426   0.21130
 Alpha virt. eigenvalues --    0.21993   0.22503   0.23032   0.26396   0.26800
 Alpha virt. eigenvalues --    0.27474   0.28730   0.29138   0.30798   0.31503
 Alpha virt. eigenvalues --    0.33828   0.34041   0.34260   0.35473   0.36139
 Alpha virt. eigenvalues --    0.36630   0.36877   0.37258   0.37778   0.39628
 Alpha virt. eigenvalues --    0.40884   0.41204   0.42068   0.43063   0.43807
 Alpha virt. eigenvalues --    0.44311   0.44769   0.46343   0.48193   0.49747
 Alpha virt. eigenvalues --    0.50124   0.51507   0.51972   0.52699   0.53019
 Alpha virt. eigenvalues --    0.54095   0.55036   0.56353   0.57668   0.58078
 Alpha virt. eigenvalues --    0.58249   0.59266   0.60434   0.61898   0.62631
 Alpha virt. eigenvalues --    0.64804   0.65664   0.72332   0.76016   0.78282
 Alpha virt. eigenvalues --    0.78885   0.80067   0.80951   0.81983   0.82907
 Alpha virt. eigenvalues --    0.83474   0.84008   0.85376   0.85478   0.86153
 Alpha virt. eigenvalues --    0.87359   0.88170   0.89308   0.90109   0.90783
 Alpha virt. eigenvalues --    0.91419   0.93850   0.95320   0.97211   0.97847
 Alpha virt. eigenvalues --    0.99440   0.99592   1.00345   1.01763   1.03184
 Alpha virt. eigenvalues --    1.04828   1.07077   1.08335   1.09352   1.09951
 Alpha virt. eigenvalues --    1.11481   1.12854   1.12963   1.13577   1.14833
 Alpha virt. eigenvalues --    1.16361   1.19359   1.20154   1.22190   1.23201
 Alpha virt. eigenvalues --    1.25047   1.25871   1.26781   1.27945   1.29166
 Alpha virt. eigenvalues --    1.29573   1.33099   1.35963   1.45874   1.48184
 Alpha virt. eigenvalues --    1.48379   1.51619   1.54076   1.56439   1.57895
 Alpha virt. eigenvalues --    1.59776   1.64173   1.68574   1.69602   1.79210
 Alpha virt. eigenvalues --    1.82235   1.83219   1.88034   1.89409   1.91675
 Alpha virt. eigenvalues --    1.92455   1.95687   1.96570   2.00326   2.00712
 Alpha virt. eigenvalues --    2.02105   2.05964   2.06649   2.08638   2.10655
 Alpha virt. eigenvalues --    2.14657   2.15610   2.16086   2.17841   2.19508
 Alpha virt. eigenvalues --    2.22561   2.23811   2.26315   2.26675   2.28626
 Alpha virt. eigenvalues --    2.29429   2.29914   2.30233   2.31359   2.33033
 Alpha virt. eigenvalues --    2.37203   2.52265   2.53323   2.54456   2.61503
 Alpha virt. eigenvalues --    2.61766   2.63125   2.64496   2.64813   2.65425
 Alpha virt. eigenvalues --    2.66046   2.66158   2.66984   2.68758   2.69433
 Alpha virt. eigenvalues --    2.73815   2.74936   2.91924   2.92285   2.93019
 Alpha virt. eigenvalues --    3.10441   3.22844   3.23295   3.23408   3.25827
 Alpha virt. eigenvalues --    3.25905   3.26706   3.26872   3.29134   3.60308
 Alpha virt. eigenvalues --    3.75354   3.75993   3.77990   3.79661   3.81928
 Alpha virt. eigenvalues --    3.84094   3.85809   3.86710   3.87137   4.01619
 Alpha virt. eigenvalues --    4.04699   4.12257   4.15768   4.20072   4.26179
 Alpha virt. eigenvalues --    4.32648   4.34085   4.36148   4.39833   4.42382
 Alpha virt. eigenvalues --    4.43973   4.45966   4.58010   4.72845   4.74122
 Alpha virt. eigenvalues --    4.78118   4.90843   4.93812   5.02754   5.11054
 Alpha virt. eigenvalues --    5.11998   5.12129   5.20174   5.21464   5.27819
 Alpha virt. eigenvalues --    5.34512   5.34750   5.37713   5.93848   5.94849
 Alpha virt. eigenvalues --    5.96955   6.05346   6.06207   6.59406   6.62924
 Alpha virt. eigenvalues --    6.65345   6.79139   7.41104   7.46612   7.55001
 Alpha virt. eigenvalues --    7.87736   7.88343   7.92435  10.17102  12.60413
 Alpha virt. eigenvalues --   52.30498
          Condensed to atoms (all electrons):
 Mulliken charges:
               1
     1  C   -0.024599
     2  H   -0.356064
     3  H    0.384801
     4  H    0.002909
     5  H   -0.026226
     6  C    0.011526
     7  H   -0.005548
     8  H    0.000084
     9  H    0.003443
    10  H    0.009675
 Sum of Mulliken charges =   0.00000
 Mulliken charges with hydrogens summed into heavy atoms:
               1
     1  C   -0.019179
     6  C    0.019179
 Electronic spatial extent (au):  <R**2>=             40.0924
 Charge=             -0.0000 electrons
 Dipole moment (field-independent basis, Debye):
    X=              0.0036    Y=             -0.0004    Z=              0.0022  Tot=              0.0042

 Test job not archived.
 1\1\GINC-CHIMERA-NODE37\SP\RM05\Gen\C2H8\CONNORNM\06-Dec-2018\0\\#T M0
 5/Gen test Massage Symmetry=None SCF=(tight,maxcyc=60)\\M05 opt\\0,1\C
 ,0,0.,0.,0.\H,0,0.61056656,0.,-0.92368525\H,0,0.63868607,-0.26556594,0
 .86460441\H,0,-0.43276639,1.00709986,0.15636203\H,0,-0.81648624,-0.741
 53391,-0.0972812\C,0,0.,0.,3.84052424\H,0,1.10108063,-0.1143309,3.8173
 7589\H,0,-0.36355252,-0.13680032,4.87739511\H,0,-0.27356665,1.01194268
 ,3.48398635\H,0,-0.46396147,-0.76081146,3.18333962\\Version=AS64L-G09R
 evD.01\HF=-47.0981134\RMSD=4.359e-09\Dipole=0.0014028,-0.0001508,0.000
 8811\Quadrupole=0.0009581,-0.0016016,0.0006435,-0.0003176,0.001571,-0.
 0003865\PG=Unknown\\@


 SI MONUMENTUM REQUIRIS, CIRCUMSPICE
     -- FROM SIR CHRISTOPHER WREN'S TOMBSTONE
 Job cpu time:       0 days  0 hours 33 minutes 36.2 seconds.
 File lengths (MBytes):  RWF=     41 Int=      0 D2E=      0 Chk=      4 Scr=      1
 Normal termination of Gaussian 09 at Thu Dec  6 13:18:00 2018.
