 Entering Gaussian System, Link 0=/data/szalewicgrp/connornm/opt/Gaussian/g09-M05-par/g09/g09
 AtFile(1): aug-cc-pVTZ.gbs
 Initial command:
 /data/szalewicgrp/connornm/opt/Gaussian/g09-M05-par/g09/l1.exe "/scratch/local/Gau-32055.inp" -scrdir="/scratch/local/"
 Entering Link 1 = /data/szalewicgrp/connornm/opt/Gaussian/g09-M05-par/g09/l1.exe PID=     32056.
  
 Copyright (c) 1988,1990,1992,1993,1995,1998,2003,2009,2013,
            Gaussian, Inc.  All Rights Reserved.
  
 This is part of the Gaussian(R) 09 program.  It is based on
 the Gaussian(R) 03 system (copyright 2003, Gaussian, Inc.),
 the Gaussian(R) 98 system (copyright 1998, Gaussian, Inc.),
 the Gaussian(R) 94 system (copyright 1995, Gaussian, Inc.),
 the Gaussian 92(TM) system (copyright 1992, Gaussian, Inc.),
 the Gaussian 90(TM) system (copyright 1990, Gaussian, Inc.),
 the Gaussian 88(TM) system (copyright 1988, Gaussian, Inc.),
 the Gaussian 86(TM) system (copyright 1986, Carnegie Mellon
 University), and the Gaussian 82(TM) system (copyright 1983,
 Carnegie Mellon University). Gaussian is a federally registered
 trademark of Gaussian, Inc.
  
 This software contains proprietary and confidential information,
 including trade secrets, belonging to Gaussian, Inc.
  
 This software is provided under written license and may be
 used, copied, transmitted, or stored only in accord with that
 written license.
  
 The following legend is applicable only to US Government
 contracts under FAR:
  
                    RESTRICTED RIGHTS LEGEND
  
 Use, reproduction and disclosure by the US Government is
 subject to restrictions as set forth in subparagraphs (a)
 and (c) of the Commercial Computer Software - Restricted
 Rights clause in FAR 52.227-19.
  
 Gaussian, Inc.
 340 Quinnipiac St., Bldg. 40, Wallingford CT 06492
  
  
 ---------------------------------------------------------------
 Warning -- This program may not be used in any manner that
 competes with the business of Gaussian, Inc. or will provide
 assistance to any competitor of Gaussian, Inc.  The licensee
 of this program is prohibited from giving any competitor of
 Gaussian, Inc. access to this program.  By using this program,
 the user acknowledges that Gaussian, Inc. is engaged in the
 business of creating and licensing software in the field of
 computational chemistry and represents and warrants to the
 licensee that it is not a competitor of Gaussian, Inc. and that
 it will not use this program in any manner prohibited above.
 ---------------------------------------------------------------
  

 Cite this work as:
 Gaussian 09, Revision D.01,
 M. J. Frisch, G. W. Trucks, H. B. Schlegel, G. E. Scuseria, 
 M. A. Robb, J. R. Cheeseman, G. Scalmani, V. Barone, B. Mennucci, 
 G. A. Petersson, H. Nakatsuji, M. Caricato, X. Li, H. P. Hratchian, 
 A. F. Izmaylov, J. Bloino, G. Zheng, J. L. Sonnenberg, M. Hada, 
 M. Ehara, K. Toyota, R. Fukuda, J. Hasegawa, M. Ishida, T. Nakajima, 
 Y. Honda, O. Kitao, H. Nakai, T. Vreven, J. A. Montgomery, Jr., 
 J. E. Peralta, F. Ogliaro, M. Bearpark, J. J. Heyd, E. Brothers, 
 K. N. Kudin, V. N. Staroverov, T. Keith, R. Kobayashi, J. Normand, 
 K. Raghavachari, A. Rendell, J. C. Burant, S. S. Iyengar, J. Tomasi, 
 M. Cossi, N. Rega, J. M. Millam, M. Klene, J. E. Knox, J. B. Cross, 
 V. Bakken, C. Adamo, J. Jaramillo, R. Gomperts, R. E. Stratmann, 
 O. Yazyev, A. J. Austin, R. Cammi, C. Pomelli, J. W. Ochterski, 
 R. L. Martin, K. Morokuma, V. G. Zakrzewski, G. A. Voth, 
 P. Salvador, J. J. Dannenberg, S. Dapprich, A. D. Daniels, 
 O. Farkas, J. B. Foresman, J. V. Ortiz, J. Cioslowski, 
 and D. J. Fox, Gaussian, Inc., Wallingford CT, 2013.
 
 ******************************************
 Gaussian 09:  AS64L-G09RevD.01 24-Apr-2013
                 6-Dec-2018 
 ******************************************
 %Chk=CH400112
 %Mem=2GB
 %NProcShared=16
 Will use up to   16 processors via shared memory.
 -----------------------------------------------------------
 #T M05/Gen test Massage Symmetry=None SCF=(tight,maxcyc=60)
 -----------------------------------------------------------
 -------
 M05 opt
 -------
 Symbolic Z-matrix:
 Charge =  0 Multiplicity = 1
 6                     0.        0.        0. 
 1                     1.09075   0.        0.19039 
 1                    -0.22462   0.66075  -0.85962 
 1                    -0.33467  -1.03029  -0.22909 
 1                    -0.53146   0.36954   0.89832 
 6-Bq                  0.        0.        2.54368 
 1-Bq                  0.14822  -0.0028    3.64096 
 1-Bq                 -0.31935   1.00859   2.21696 
 1-Bq                  0.95045  -0.2667    2.04218 
 1-Bq                 -0.77933  -0.73909   2.27463 
 
                    Distance matrix (angstroms):
                    1          2          3          4          5
     1  C    0.000000
     2  H    1.107243   0.000000
     3  H    1.107242   1.808119   0.000000
     4  H    1.107243   1.808119   1.808119   0.000000
     5  H    1.107242   1.808119   1.808119   1.808119   0.000000
     6  C    2.543683   2.593790   3.474117   2.976874   1.768114
     7  H    3.643973   3.576982   4.564479   4.033135   2.850028
     8  H    2.456456   2.666956   3.097631   3.184409   1.480610
     9  H    2.268252   1.876152   3.265172   2.719055   1.977183
    10  H    2.515464   2.896123   3.477179   2.559521   1.784581
                    6          7          8          9         10
     6  C    0.000000
     7  H    1.107243   0.000000
     8  H    1.107243   1.808119   0.000000
     9  H    1.107242   1.808119   1.808119   0.000000
    10  H    1.107242   1.808119   1.808119   1.808119   0.000000
 Symmetry turned off by external request.
 Rotational constants (GHZ):     76.6916055      8.6458134      8.6458134
   276 basis functions,   360 primitive gaussians,   310 cartesian basis functions
     5 alpha electrons        5 beta electrons
       nuclear repulsion energy        13.2261670035 Hartrees.
 IMHF & INEx in M05                  614413                  385587
 NAtoms=   10 NActive=   10 NUniq=   10 SFac= 1.00D+00 NAtFMM=   60 NAOKFM=F Big=F
 ExpMin= 2.53D-02 ExpMax= 8.24D+03 ExpMxC= 2.81D+02 IAcc=3 IRadAn=         5 AccDes= 0.00D+00
 Harris functional with IExCor= 1009 and IRadAn=       5 diagonalized for initial guess.
 HarFok:  IExCor= 1009 AccDes= 0.00D+00 IRadAn=         5 IDoV= 1 UseB2=F ITyADJ=14
 ICtDFT=  3500011 ScaDFX=  1.000000  1.000000  1.000000  1.000000
 FoFCou: FMM=F IPFlag=           0 FMFlag=      100000 FMFlg1=           0
         NFxFlg=           0 DoJE=T BraDBF=F KetDBF=T FulRan=T
         wScrn=  0.000000 ICntrl=     500 IOpCl=  0 I1Cent=   200000004 NGrid=           0
         NMat0=    1 NMatS0=      1 NMatT0=    0 NMatD0=    1 NMtDS0=    0 NMtDT0=    0
 Symmetry not used in FoFCou.
 EnCoef did   100 forward-backward iterations
 Restarting incremental Fock formation.
 SCF Done:  E(RM05) =  -47.1019327699     A.U. after   23 cycles
            NFock= 23  Conv=0.27D-08     -V/T= 2.0175

 **********************************************************************

            Population analysis using the SCF density.

 **********************************************************************

 Alpha  occ. eigenvalues --  -11.25544  -0.78112  -0.59337  -0.59303  -0.59299
 Alpha virt. eigenvalues --   -0.27501  -0.22741  -0.22677  -0.22659  -0.18728
 Alpha virt. eigenvalues --   -0.18565  -0.18550  -0.17026  -0.16750  -0.08396
 Alpha virt. eigenvalues --   -0.07254  -0.06912  -0.06224  -0.05323  -0.04961
 Alpha virt. eigenvalues --   -0.04403  -0.03208  -0.00759  -0.00588  -0.00554
 Alpha virt. eigenvalues --    0.00741   0.02086   0.02442   0.03827   0.04198
 Alpha virt. eigenvalues --    0.05882   0.06169   0.06556   0.06779   0.07211
 Alpha virt. eigenvalues --    0.07736   0.08164   0.09094   0.09410   0.10126
 Alpha virt. eigenvalues --    0.10311   0.11076   0.11254   0.12182   0.12290
 Alpha virt. eigenvalues --    0.12992   0.14318   0.16198   0.17097   0.19187
 Alpha virt. eigenvalues --    0.20088   0.22451   0.22980   0.23863   0.25122
 Alpha virt. eigenvalues --    0.25980   0.26161   0.27448   0.28228   0.29959
 Alpha virt. eigenvalues --    0.30574   0.31141   0.32776   0.33193   0.34156
 Alpha virt. eigenvalues --    0.34579   0.35558   0.36218   0.36813   0.37065
 Alpha virt. eigenvalues --    0.37569   0.38710   0.40499   0.41314   0.43172
 Alpha virt. eigenvalues --    0.43343   0.44851   0.45701   0.46598   0.47173
 Alpha virt. eigenvalues --    0.48949   0.50921   0.52145   0.52529   0.53700
 Alpha virt. eigenvalues --    0.53984   0.55553   0.57377   0.57874   0.58645
 Alpha virt. eigenvalues --    0.59467   0.60424   0.61201   0.62167   0.63838
 Alpha virt. eigenvalues --    0.65975   0.67512   0.68625   0.69673   0.69825
 Alpha virt. eigenvalues --    0.71996   0.74847   0.75698   0.77791   0.79004
 Alpha virt. eigenvalues --    0.79668   0.80293   0.81535   0.82717   0.82999
 Alpha virt. eigenvalues --    0.84735   0.85472   0.86311   0.86985   0.88197
 Alpha virt. eigenvalues --    0.89390   0.90259   0.91339   0.92654   0.93587
 Alpha virt. eigenvalues --    0.95375   0.96043   0.96654   0.98429   1.00303
 Alpha virt. eigenvalues --    1.02767   1.04321   1.05127   1.06421   1.07087
 Alpha virt. eigenvalues --    1.08251   1.10073   1.12199   1.12909   1.14694
 Alpha virt. eigenvalues --    1.16257   1.18472   1.20095   1.20412   1.23641
 Alpha virt. eigenvalues --    1.24577   1.26387   1.26780   1.28113   1.29297
 Alpha virt. eigenvalues --    1.32061   1.32517   1.35606   1.38114   1.41138
 Alpha virt. eigenvalues --    1.42090   1.42871   1.45811   1.49259   1.49564
 Alpha virt. eigenvalues --    1.51360   1.53183   1.54361   1.57128   1.59317
 Alpha virt. eigenvalues --    1.63218   1.65961   1.67965   1.69195   1.70568
 Alpha virt. eigenvalues --    1.77637   1.81805   1.83730   1.95247   1.98558
 Alpha virt. eigenvalues --    2.02247   2.03323   2.03783   2.05288   2.06612
 Alpha virt. eigenvalues --    2.07839   2.09406   2.10420   2.14849   2.16321
 Alpha virt. eigenvalues --    2.16939   2.17238   2.19430   2.21390   2.26499
 Alpha virt. eigenvalues --    2.28518   2.30641   2.31110   2.34104   2.37282
 Alpha virt. eigenvalues --    2.38517   2.40049   2.41335   2.42859   2.54635
 Alpha virt. eigenvalues --    2.62002   2.63991   2.65285   2.66840   2.67720
 Alpha virt. eigenvalues --    2.69265   2.72548   2.73485   2.74144   2.76492
 Alpha virt. eigenvalues --    2.78722   2.83686   2.94322   2.94708   2.96378
 Alpha virt. eigenvalues --    3.04561   3.07725   3.12068   3.14201   3.15777
 Alpha virt. eigenvalues --    3.21474   3.22313   3.24965   3.25629   3.27567
 Alpha virt. eigenvalues --    3.27944   3.29817   3.30553   3.32645   3.35486
 Alpha virt. eigenvalues --    3.38009   3.40473   3.49140   3.50792   3.53477
 Alpha virt. eigenvalues --    3.58090   3.64127   3.70441   3.74040   3.78888
 Alpha virt. eigenvalues --    3.81834   3.82506   3.85561   3.85842   3.91719
 Alpha virt. eigenvalues --    3.93743   4.00338   4.03504   4.10326   4.16686
 Alpha virt. eigenvalues --    4.18855   4.24251   4.29280   4.29690   4.37861
 Alpha virt. eigenvalues --    4.39614   4.45419   4.49746   4.54228   4.66367
 Alpha virt. eigenvalues --    4.78872   4.90436   4.96442   5.06388   5.20311
 Alpha virt. eigenvalues --    5.26580   5.41112   5.46004   5.58060   5.78090
 Alpha virt. eigenvalues --    5.87190   6.04238   6.13490   6.29976   6.67224
 Alpha virt. eigenvalues --    6.74275   6.87405   7.07990   8.84620  13.23247
 Alpha virt. eigenvalues --   48.65047
          Condensed to atoms (all electrons):
 Mulliken charges:
               1
     1  C   -0.920285
     2  H    0.328166
     3  H   -0.821672
     4  H    0.108190
     5  H    1.709094
     6  C   -0.154589
     7  H   -0.072658
     8  H   -0.071575
     9  H   -0.225928
    10  H    0.121259
 Sum of Mulliken charges =  -0.00000
 Mulliken charges with hydrogens summed into heavy atoms:
               1
     1  C    0.403492
     6  C   -0.403492
 Electronic spatial extent (au):  <R**2>=             40.0921
 Charge=             -0.0000 electrons
 Dipole moment (field-independent basis, Debye):
    X=             -0.0064    Y=              0.0033    Z=             -0.0016  Tot=              0.0074

 Test job not archived.
 1\1\GINC-CHIMERA-NODE21\SP\RM05\Gen\C2H8\CONNORNM\06-Dec-2018\0\\#T M0
 5/Gen test Massage Symmetry=None SCF=(tight,maxcyc=60)\\M05 opt\\0,1\C
 ,0,0.,0.,0.\H,0,1.09075162,0.,0.19038609\H,0,-0.22461857,0.66075173,-0
 .85961596\H,0,-0.33467416,-1.03028967,-0.22909029\H,0,-0.53145889,0.36
 953794,0.89832016\C,0,0.,0.,2.54368316\H,0,0.14822391,-0.0028041,3.640
 95604\H,0,-0.31934545,1.00859287,2.21696484\H,0,0.95044655,-0.26670062
 ,2.04217734\H,0,-0.779325,-0.73908814,2.27463444\\Version=AS64L-G09Rev
 D.01\HF=-47.1019328\RMSD=2.749e-09\Dipole=-0.0025205,0.0012931,-0.0006
 478\Quadrupole=0.0077421,0.0071877,-0.0149297,-0.003567,-0.0052377,0.0
 041599\PG=Unknown\\@


 LOGIC IS A SYSTEMATIC METHOD OF COMING TO THE
 WRONG CONCLUSION WITH CONFIDENCE.
 Job cpu time:       0 days  0 hours 41 minutes 55.7 seconds.
 File lengths (MBytes):  RWF=     41 Int=      0 D2E=      0 Chk=      4 Scr=      1
 Normal termination of Gaussian 09 at Thu Dec  6 13:18:32 2018.
