 Entering Gaussian System, Link 0=/data/szalewicgrp/connornm/opt/Gaussian/g09-M05-par/g09/g09
 AtFile(1): aug-cc-pVTZ.gbs
 Initial command:
 /data/szalewicgrp/connornm/opt/Gaussian/g09-M05-par/g09/l1.exe "/scratch/local/Gau-27151.inp" -scrdir="/scratch/local/"
 Entering Link 1 = /data/szalewicgrp/connornm/opt/Gaussian/g09-M05-par/g09/l1.exe PID=     27152.
  
 Copyright (c) 1988,1990,1992,1993,1995,1998,2003,2009,2013,
            Gaussian, Inc.  All Rights Reserved.
  
 This is part of the Gaussian(R) 09 program.  It is based on
 the Gaussian(R) 03 system (copyright 2003, Gaussian, Inc.),
 the Gaussian(R) 98 system (copyright 1998, Gaussian, Inc.),
 the Gaussian(R) 94 system (copyright 1995, Gaussian, Inc.),
 the Gaussian 92(TM) system (copyright 1992, Gaussian, Inc.),
 the Gaussian 90(TM) system (copyright 1990, Gaussian, Inc.),
 the Gaussian 88(TM) system (copyright 1988, Gaussian, Inc.),
 the Gaussian 86(TM) system (copyright 1986, Carnegie Mellon
 University), and the Gaussian 82(TM) system (copyright 1983,
 Carnegie Mellon University). Gaussian is a federally registered
 trademark of Gaussian, Inc.
  
 This software contains proprietary and confidential information,
 including trade secrets, belonging to Gaussian, Inc.
  
 This software is provided under written license and may be
 used, copied, transmitted, or stored only in accord with that
 written license.
  
 The following legend is applicable only to US Government
 contracts under FAR:
  
                    RESTRICTED RIGHTS LEGEND
  
 Use, reproduction and disclosure by the US Government is
 subject to restrictions as set forth in subparagraphs (a)
 and (c) of the Commercial Computer Software - Restricted
 Rights clause in FAR 52.227-19.
  
 Gaussian, Inc.
 340 Quinnipiac St., Bldg. 40, Wallingford CT 06492
  
  
 ---------------------------------------------------------------
 Warning -- This program may not be used in any manner that
 competes with the business of Gaussian, Inc. or will provide
 assistance to any competitor of Gaussian, Inc.  The licensee
 of this program is prohibited from giving any competitor of
 Gaussian, Inc. access to this program.  By using this program,
 the user acknowledges that Gaussian, Inc. is engaged in the
 business of creating and licensing software in the field of
 computational chemistry and represents and warrants to the
 licensee that it is not a competitor of Gaussian, Inc. and that
 it will not use this program in any manner prohibited above.
 ---------------------------------------------------------------
  

 Cite this work as:
 Gaussian 09, Revision D.01,
 M. J. Frisch, G. W. Trucks, H. B. Schlegel, G. E. Scuseria, 
 M. A. Robb, J. R. Cheeseman, G. Scalmani, V. Barone, B. Mennucci, 
 G. A. Petersson, H. Nakatsuji, M. Caricato, X. Li, H. P. Hratchian, 
 A. F. Izmaylov, J. Bloino, G. Zheng, J. L. Sonnenberg, M. Hada, 
 M. Ehara, K. Toyota, R. Fukuda, J. Hasegawa, M. Ishida, T. Nakajima, 
 Y. Honda, O. Kitao, H. Nakai, T. Vreven, J. A. Montgomery, Jr., 
 J. E. Peralta, F. Ogliaro, M. Bearpark, J. J. Heyd, E. Brothers, 
 K. N. Kudin, V. N. Staroverov, T. Keith, R. Kobayashi, J. Normand, 
 K. Raghavachari, A. Rendell, J. C. Burant, S. S. Iyengar, J. Tomasi, 
 M. Cossi, N. Rega, J. M. Millam, M. Klene, J. E. Knox, J. B. Cross, 
 V. Bakken, C. Adamo, J. Jaramillo, R. Gomperts, R. E. Stratmann, 
 O. Yazyev, A. J. Austin, R. Cammi, C. Pomelli, J. W. Ochterski, 
 R. L. Martin, K. Morokuma, V. G. Zakrzewski, G. A. Voth, 
 P. Salvador, J. J. Dannenberg, S. Dapprich, A. D. Daniels, 
 O. Farkas, J. B. Foresman, J. V. Ortiz, J. Cioslowski, 
 and D. J. Fox, Gaussian, Inc., Wallingford CT, 2013.
 
 ******************************************
 Gaussian 09:  AS64L-G09RevD.01 24-Apr-2013
                 5-Dec-2018 
 ******************************************
 %Chk=CH400136
 %Mem=2GB
 %NProcShared=16
 Will use up to   16 processors via shared memory.
 -----------------------------------------------------------
 #T M05/Gen test Massage Symmetry=None SCF=(tight,maxcyc=60)
 -----------------------------------------------------------
 -------
 M05 opt
 -------
 Symbolic Z-matrix:
 Charge =  0 Multiplicity = 1
 6                     0.        0.        0. 
 1                     0.93107   0.       -0.59924 
 1                    -0.08474   0.95707   0.5503 
 1                    -0.87174  -0.1175   -0.6725 
 1                     0.02541  -0.83956   0.72144 
 6-Bq                  0.        0.        3.367 
 1-Bq                  0.152    -0.85717   2.68279 
 1-Bq                 -0.33249   0.88178   2.78571 
 1-Bq                 -0.77135  -0.25934   4.11782 
 1-Bq                  0.95184   0.23473   3.88166 
 
                    Distance matrix (angstroms):
                    1          2          3          4          5
     1  C    0.000000
     2  H    1.107243   0.000000
     3  H    1.107243   1.808119   0.000000
     4  H    1.107242   1.808119   1.808119   0.000000
     5  H    1.107242   1.808119   1.808119   1.808119   0.000000
     6  C    3.366996   4.074058   2.976059   4.134153   2.775695
     7  H    2.820500   3.480439   2.809810   3.585123   1.965513
     8  H    2.940794   3.719144   2.250356   3.639855   2.711519
     9  H    4.197464   5.021575   3.831227   4.793467   3.536509
    10  H    4.003547   4.487096   3.562896   4.918318   3.464014
                    6          7          8          9         10
     6  C    0.000000
     7  H    1.107243   0.000000
     8  H    1.107243   1.808119   0.000000
     9  H    1.107243   1.808119   1.808119   0.000000
    10  H    1.107243   1.808119   1.808119   1.808119   0.000000
 Symmetry turned off by external request.
 Rotational constants (GHZ):     76.6916052      5.1854777      5.1854777
   276 basis functions,   360 primitive gaussians,   310 cartesian basis functions
     5 alpha electrons        5 beta electrons
       nuclear repulsion energy        13.2261669977 Hartrees.
 IMHF & INEx in M05                  614413                  385587
 NAtoms=   10 NActive=   10 NUniq=   10 SFac= 1.00D+00 NAtFMM=   60 NAOKFM=F Big=F
 ExpMin= 2.53D-02 ExpMax= 8.24D+03 ExpMxC= 2.81D+02 IAcc=3 IRadAn=         5 AccDes= 0.00D+00
 Harris functional with IExCor= 1009 and IRadAn=       5 diagonalized for initial guess.
 HarFok:  IExCor= 1009 AccDes= 0.00D+00 IRadAn=         5 IDoV= 1 UseB2=F ITyADJ=14
 ICtDFT=  3500011 ScaDFX=  1.000000  1.000000  1.000000  1.000000
 FoFCou: FMM=F IPFlag=           0 FMFlag=      100000 FMFlg1=           0
         NFxFlg=           0 DoJE=T BraDBF=F KetDBF=T FulRan=T
         wScrn=  0.000000 ICntrl=     500 IOpCl=  0 I1Cent=   200000004 NGrid=           0
         NMat0=    1 NMatS0=      1 NMatT0=    0 NMatD0=    1 NMtDS0=    0 NMtDT0=    0
 Symmetry not used in FoFCou.
 SCF Done:  E(RM05) =  -40.9122552259     A.U. after    7 cycles
            NFock=  7  Conv=0.40D-08     -V/T= 2.0127

 **********************************************************************

            Population analysis using the SCF density.

 **********************************************************************

 Alpha  occ. eigenvalues --  -10.74529  -0.82769  -0.48753  -0.48752  -0.48751
 Alpha virt. eigenvalues --   -0.00109   0.02407   0.02790   0.02970   0.04799
 Alpha virt. eigenvalues --    0.04889   0.05287   0.07416   0.08561   0.08913
 Alpha virt. eigenvalues --    0.09258   0.11032   0.11189   0.12174   0.12221
 Alpha virt. eigenvalues --    0.13314   0.15601   0.16390   0.16562   0.17304
 Alpha virt. eigenvalues --    0.20481   0.22243   0.24896   0.25955   0.26471
 Alpha virt. eigenvalues --    0.26688   0.26971   0.27186   0.28694   0.29404
 Alpha virt. eigenvalues --    0.29916   0.30728   0.31143   0.31521   0.32088
 Alpha virt. eigenvalues --    0.32651   0.34055   0.35125   0.36256   0.36748
 Alpha virt. eigenvalues --    0.37492   0.38308   0.39129   0.40848   0.41175
 Alpha virt. eigenvalues --    0.43482   0.44523   0.44595   0.47580   0.48120
 Alpha virt. eigenvalues --    0.49500   0.50405   0.51084   0.51536   0.54407
 Alpha virt. eigenvalues --    0.55326   0.56644   0.58097   0.61171   0.62780
 Alpha virt. eigenvalues --    0.64998   0.65572   0.66982   0.68795   0.69124
 Alpha virt. eigenvalues --    0.71754   0.72135   0.73747   0.75643   0.77725
 Alpha virt. eigenvalues --    0.78522   0.79233   0.84075   0.84304   0.85830
 Alpha virt. eigenvalues --    0.88987   0.90382   0.90828   0.91736   0.92372
 Alpha virt. eigenvalues --    0.93657   0.94823   0.95375   0.97423   0.97878
 Alpha virt. eigenvalues --    0.98541   1.00273   1.01071   1.02870   1.03039
 Alpha virt. eigenvalues --    1.03859   1.04693   1.06106   1.07378   1.07752
 Alpha virt. eigenvalues --    1.09468   1.10498   1.10749   1.12206   1.12754
 Alpha virt. eigenvalues --    1.13924   1.15395   1.16287   1.18003   1.19418
 Alpha virt. eigenvalues --    1.23031   1.24451   1.25994   1.28246   1.30330
 Alpha virt. eigenvalues --    1.32807   1.34038   1.34975   1.35434   1.37530
 Alpha virt. eigenvalues --    1.38257   1.40706   1.41799   1.43511   1.44596
 Alpha virt. eigenvalues --    1.46646   1.47117   1.48441   1.50036   1.52161
 Alpha virt. eigenvalues --    1.53293   1.56695   1.58950   1.64319   1.65567
 Alpha virt. eigenvalues --    1.68627   1.69559   1.71233   1.73659   1.75295
 Alpha virt. eigenvalues --    1.77828   1.80037   1.82403   1.84522   1.85466
 Alpha virt. eigenvalues --    1.88079   1.89891   1.92711   1.94532   1.97131
 Alpha virt. eigenvalues --    1.98295   2.00054   2.01991   2.02737   2.04717
 Alpha virt. eigenvalues --    2.06645   2.07547   2.08646   2.14199   2.17686
 Alpha virt. eigenvalues --    2.20290   2.31871   2.33139   2.33591   2.41165
 Alpha virt. eigenvalues --    2.47339   2.49528   2.66307   2.67820   2.68620
 Alpha virt. eigenvalues --    2.74294   2.83892   2.93153   2.95168   3.00555
 Alpha virt. eigenvalues --    3.22215   3.24969   3.26508   3.28323   3.29094
 Alpha virt. eigenvalues --    3.30225   3.34399   3.39148   3.59030   3.59176
 Alpha virt. eigenvalues --    3.63741   3.67616   3.71154   3.73658   3.75496
 Alpha virt. eigenvalues --    3.77014   3.78164   3.79954   3.82007   3.87202
 Alpha virt. eigenvalues --    3.89858   3.96206   3.98678   4.00456   4.04752
 Alpha virt. eigenvalues --    4.11761   4.18115   4.18793   4.19744   4.20481
 Alpha virt. eigenvalues --    4.22708   4.32072   4.33118   4.34566   4.35855
 Alpha virt. eigenvalues --    4.36244   4.37394   4.39377   4.40419   4.43380
 Alpha virt. eigenvalues --    4.45985   4.47986   4.50710   4.52097   4.54081
 Alpha virt. eigenvalues --    4.55049   4.57089   4.57882   4.59390   4.61104
 Alpha virt. eigenvalues --    4.68106   4.77365   4.78596   4.79791   4.81523
 Alpha virt. eigenvalues --    4.87069   4.90196   4.92875   4.94753   5.11663
 Alpha virt. eigenvalues --    5.13947   5.15542   5.15831   5.18373   5.21383
 Alpha virt. eigenvalues --    5.26141   5.26917   5.27239   5.30329   5.32248
 Alpha virt. eigenvalues --    5.35834   5.38887   5.45526   5.46127   5.46298
 Alpha virt. eigenvalues --    5.49443   5.59623   5.60535   5.65412   5.74430
 Alpha virt. eigenvalues --    6.06194   6.06867   6.10113   6.10787   6.12353
 Alpha virt. eigenvalues --    6.17893   6.19883   6.21248   6.78133   6.81362
 Alpha virt. eigenvalues --    6.84732   6.97758   7.59957   7.64050   7.65284
 Alpha virt. eigenvalues --    8.02265   8.05565   8.09249  10.25980  16.85984
 Alpha virt. eigenvalues --   52.50806
          Condensed to atoms (all electrons):
 Mulliken charges:
               1
     1  C   -1.937170
     2  H    0.406591
     3  H    0.502272
     4  H    0.391317
     5  H    0.600252
     6  C    0.020814
     7  H   -0.003732
     8  H    0.011782
     9  H    0.003650
    10  H    0.004224
 Sum of Mulliken charges =  -0.00000
 Mulliken charges with hydrogens summed into heavy atoms:
               1
     1  C   -0.036739
     6  C    0.036739
 Electronic spatial extent (au):  <R**2>=             36.5425
 Charge=             -0.0000 electrons
 Dipole moment (field-independent basis, Debye):
    X=              0.0000    Y=             -0.0000    Z=             -0.0001  Tot=              0.0001

 Test job not archived.
 1\1\GINC-CHIMERA-NODE24\SP\RM05\Gen\C2H8\CONNORNM\05-Dec-2018\0\\#T M0
 5/Gen test Massage Symmetry=None SCF=(tight,maxcyc=60)\\M05 opt\\0,1\C
 ,0,0.,0.,0.\H,0,0.93107063,0.,-0.59924406\H,0,-0.08473885,0.95706581,0
 .55030021\H,0,-0.87173919,-0.11750278,-0.67249523\H,0,0.02540741,-0.83
 956303,0.72143907\C,0,0.,0.,3.36699565\H,0,0.15199937,-0.85717387,2.68
 279165\H,0,-0.33248882,0.88178417,2.78570929\H,0,-0.77135469,-0.259342
 35,4.11782149\H,0,0.95184414,0.23473205,3.88166016\\Version=AS64L-G09R
 evD.01\HF=-40.9122552\RMSD=3.973e-09\Dipole=0.0000028,-0.0000091,-0.00
 00296\Quadrupole=-0.0004542,0.0002289,0.0002253,0.0001357,-0.0000377,0
 .0000946\PG=Unknown\\@


 If your ship doesn't come in, swim out to it!
                          -- Jonathan Winters
 Job cpu time:       0 days  0 hours 12 minutes 31.0 seconds.
 File lengths (MBytes):  RWF=     41 Int=      0 D2E=      0 Chk=      4 Scr=      1
 Normal termination of Gaussian 09 at Wed Dec  5 21:54:36 2018.
