 Entering Gaussian System, Link 0=/data/szalewicgrp/connornm/opt/Gaussian/g09-M05-par/g09/g09
 AtFile(1): aug-cc-pVTZ.gbs
 Initial command:
 /data/szalewicgrp/connornm/opt/Gaussian/g09-M05-par/g09/l1.exe "/scratch/local/Gau-12631.inp" -scrdir="/scratch/local/"
 Entering Link 1 = /data/szalewicgrp/connornm/opt/Gaussian/g09-M05-par/g09/l1.exe PID=     12632.
  
 Copyright (c) 1988,1990,1992,1993,1995,1998,2003,2009,2013,
            Gaussian, Inc.  All Rights Reserved.
  
 This is part of the Gaussian(R) 09 program.  It is based on
 the Gaussian(R) 03 system (copyright 2003, Gaussian, Inc.),
 the Gaussian(R) 98 system (copyright 1998, Gaussian, Inc.),
 the Gaussian(R) 94 system (copyright 1995, Gaussian, Inc.),
 the Gaussian 92(TM) system (copyright 1992, Gaussian, Inc.),
 the Gaussian 90(TM) system (copyright 1990, Gaussian, Inc.),
 the Gaussian 88(TM) system (copyright 1988, Gaussian, Inc.),
 the Gaussian 86(TM) system (copyright 1986, Carnegie Mellon
 University), and the Gaussian 82(TM) system (copyright 1983,
 Carnegie Mellon University). Gaussian is a federally registered
 trademark of Gaussian, Inc.
  
 This software contains proprietary and confidential information,
 including trade secrets, belonging to Gaussian, Inc.
  
 This software is provided under written license and may be
 used, copied, transmitted, or stored only in accord with that
 written license.
  
 The following legend is applicable only to US Government
 contracts under FAR:
  
                    RESTRICTED RIGHTS LEGEND
  
 Use, reproduction and disclosure by the US Government is
 subject to restrictions as set forth in subparagraphs (a)
 and (c) of the Commercial Computer Software - Restricted
 Rights clause in FAR 52.227-19.
  
 Gaussian, Inc.
 340 Quinnipiac St., Bldg. 40, Wallingford CT 06492
  
  
 ---------------------------------------------------------------
 Warning -- This program may not be used in any manner that
 competes with the business of Gaussian, Inc. or will provide
 assistance to any competitor of Gaussian, Inc.  The licensee
 of this program is prohibited from giving any competitor of
 Gaussian, Inc. access to this program.  By using this program,
 the user acknowledges that Gaussian, Inc. is engaged in the
 business of creating and licensing software in the field of
 computational chemistry and represents and warrants to the
 licensee that it is not a competitor of Gaussian, Inc. and that
 it will not use this program in any manner prohibited above.
 ---------------------------------------------------------------
  

 Cite this work as:
 Gaussian 09, Revision D.01,
 M. J. Frisch, G. W. Trucks, H. B. Schlegel, G. E. Scuseria, 
 M. A. Robb, J. R. Cheeseman, G. Scalmani, V. Barone, B. Mennucci, 
 G. A. Petersson, H. Nakatsuji, M. Caricato, X. Li, H. P. Hratchian, 
 A. F. Izmaylov, J. Bloino, G. Zheng, J. L. Sonnenberg, M. Hada, 
 M. Ehara, K. Toyota, R. Fukuda, J. Hasegawa, M. Ishida, T. Nakajima, 
 Y. Honda, O. Kitao, H. Nakai, T. Vreven, J. A. Montgomery, Jr., 
 J. E. Peralta, F. Ogliaro, M. Bearpark, J. J. Heyd, E. Brothers, 
 K. N. Kudin, V. N. Staroverov, T. Keith, R. Kobayashi, J. Normand, 
 K. Raghavachari, A. Rendell, J. C. Burant, S. S. Iyengar, J. Tomasi, 
 M. Cossi, N. Rega, J. M. Millam, M. Klene, J. E. Knox, J. B. Cross, 
 V. Bakken, C. Adamo, J. Jaramillo, R. Gomperts, R. E. Stratmann, 
 O. Yazyev, A. J. Austin, R. Cammi, C. Pomelli, J. W. Ochterski, 
 R. L. Martin, K. Morokuma, V. G. Zakrzewski, G. A. Voth, 
 P. Salvador, J. J. Dannenberg, S. Dapprich, A. D. Daniels, 
 O. Farkas, J. B. Foresman, J. V. Ortiz, J. Cioslowski, 
 and D. J. Fox, Gaussian, Inc., Wallingford CT, 2013.
 
 ******************************************
 Gaussian 09:  AS64L-G09RevD.01 24-Apr-2013
                 6-Dec-2018 
 ******************************************
 %Chk=CH400233
 %Mem=2GB
 %NProcShared=16
 Will use up to   16 processors via shared memory.
 -----------------------------------------------------------
 #T M05/Gen test Massage Symmetry=None SCF=(tight,maxcyc=60)
 -----------------------------------------------------------
 -------
 M05 opt
 -------
 Symbolic Z-matrix:
 Charge =  0 Multiplicity = 1
 6                     0.        0.        0. 
 1                     0.65832   0.       -0.89028 
 1                    -1.02626  -0.28788  -0.29984 
 1                     0.38443  -0.72507   0.74329 
 1                    -0.01648   1.01294   0.44683 
 6-Bq                  0.        0.        4.54351 
 1-Bq                 -0.36058   1.01995   4.77943 
 1-Bq                 -0.71375  -0.74567   4.94416 
 1-Bq                  0.07995  -0.11843   3.44553 
 1-Bq                  0.99438  -0.15585   5.00492 
 
                    Distance matrix (angstroms):
                    1          2          3          4          5
     1  C    0.000000
     2  H    1.107242   0.000000
     3  H    1.107242   1.808119   0.000000
     4  H    1.107242   1.808119   1.808119   0.000000
     5  H    1.107242   1.808119   1.808119   1.808119   0.000000
     6  C    4.543510   5.473528   4.959245   3.887827   4.220080
     7  H    4.900338   5.850142   5.287016   4.459889   4.346247
     8  H    5.050758   6.039810   5.273208   4.342088   4.879018
     9  H    3.448489   4.375818   3.908988   2.786182   3.206471
    10  H    5.105130   5.906837   5.678110   4.342532   4.812911
                    6          7          8          9         10
     6  C    0.000000
     7  H    1.107243   0.000000
     8  H    1.107243   1.808119   0.000000
     9  H    1.107243   1.808119   1.808119   0.000000
    10  H    1.107243   1.808119   1.808119   1.808119   0.000000
 Symmetry turned off by external request.
 Rotational constants (GHZ):     76.6916056      2.9372132      2.9372132
   276 basis functions,   360 primitive gaussians,   310 cartesian basis functions
     5 alpha electrons        5 beta electrons
       nuclear repulsion energy        13.2261670338 Hartrees.
 IMHF & INEx in M05                  614413                  385587
 NAtoms=   10 NActive=   10 NUniq=   10 SFac= 1.00D+00 NAtFMM=   60 NAOKFM=F Big=F
 ExpMin= 2.53D-02 ExpMax= 8.24D+03 ExpMxC= 2.81D+02 IAcc=3 IRadAn=         5 AccDes= 0.00D+00
 Harris functional with IExCor= 1009 and IRadAn=       5 diagonalized for initial guess.
 HarFok:  IExCor= 1009 AccDes= 0.00D+00 IRadAn=         5 IDoV= 1 UseB2=F ITyADJ=14
 ICtDFT=  3500011 ScaDFX=  1.000000  1.000000  1.000000  1.000000
 FoFCou: FMM=F IPFlag=           0 FMFlag=      100000 FMFlg1=           0
         NFxFlg=           0 DoJE=T BraDBF=F KetDBF=T FulRan=T
         wScrn=  0.000000 ICntrl=     500 IOpCl=  0 I1Cent=   200000004 NGrid=           0
         NMat0=    1 NMatS0=      1 NMatT0=    0 NMatD0=    1 NMtDS0=    0 NMtDT0=    0
 Symmetry not used in FoFCou.
 SCF Done:  E(RM05) =  -40.9122207078     A.U. after    7 cycles
            NFock=  7  Conv=0.37D-08     -V/T= 2.0128

 **********************************************************************

            Population analysis using the SCF density.

 **********************************************************************

 Alpha  occ. eigenvalues --  -10.74529  -0.82768  -0.48752  -0.48751  -0.48751
 Alpha virt. eigenvalues --   -0.00114   0.02255   0.02844   0.02891   0.04339
 Alpha virt. eigenvalues --    0.04955   0.05475   0.06397   0.08561   0.09472
 Alpha virt. eigenvalues --    0.09590   0.10056   0.10884   0.11452   0.12502
 Alpha virt. eigenvalues --    0.13381   0.15751   0.15803   0.16112   0.16513
 Alpha virt. eigenvalues --    0.19412   0.22384   0.22662   0.25337   0.25542
 Alpha virt. eigenvalues --    0.26435   0.26589   0.27486   0.27884   0.28547
 Alpha virt. eigenvalues --    0.29056   0.29519   0.29719   0.30180   0.30878
 Alpha virt. eigenvalues --    0.31629   0.32645   0.34286   0.34640   0.35019
 Alpha virt. eigenvalues --    0.35315   0.35749   0.36847   0.37603   0.38418
 Alpha virt. eigenvalues --    0.39899   0.41133   0.41743   0.43716   0.44771
 Alpha virt. eigenvalues --    0.45921   0.46896   0.47515   0.49337   0.50989
 Alpha virt. eigenvalues --    0.53479   0.56459   0.57865   0.59365   0.61577
 Alpha virt. eigenvalues --    0.64336   0.64787   0.65724   0.65849   0.69837
 Alpha virt. eigenvalues --    0.70865   0.71749   0.73599   0.75012   0.77339
 Alpha virt. eigenvalues --    0.78258   0.79687   0.83187   0.85276   0.85524
 Alpha virt. eigenvalues --    0.86839   0.87636   0.89209   0.91695   0.93220
 Alpha virt. eigenvalues --    0.93929   0.94842   0.95294   0.95960   0.96876
 Alpha virt. eigenvalues --    0.97661   0.98190   0.98905   0.99420   1.01011
 Alpha virt. eigenvalues --    1.01896   1.03015   1.03385   1.03988   1.04889
 Alpha virt. eigenvalues --    1.05802   1.07077   1.07384   1.07978   1.09003
 Alpha virt. eigenvalues --    1.10244   1.11296   1.12277   1.12780   1.13019
 Alpha virt. eigenvalues --    1.14439   1.16864   1.17529   1.19921   1.21980
 Alpha virt. eigenvalues --    1.22752   1.25136   1.27513   1.29081   1.29503
 Alpha virt. eigenvalues --    1.33488   1.37164   1.37944   1.38344   1.39147
 Alpha virt. eigenvalues --    1.42725   1.44269   1.45448   1.46563   1.47025
 Alpha virt. eigenvalues --    1.48636   1.50001   1.50710   1.57400   1.58792
 Alpha virt. eigenvalues --    1.59662   1.65744   1.67226   1.68024   1.69425
 Alpha virt. eigenvalues --    1.70404   1.71039   1.74314   1.76267   1.78801
 Alpha virt. eigenvalues --    1.81173   1.84186   1.86012   1.87321   1.93043
 Alpha virt. eigenvalues --    1.95357   1.96426   1.98224   2.01563   2.02418
 Alpha virt. eigenvalues --    2.03763   2.04211   2.07661   2.08263   2.09732
 Alpha virt. eigenvalues --    2.16199   2.26922   2.27967   2.31378   2.37199
 Alpha virt. eigenvalues --    2.44393   2.46864   2.65177   2.67615   2.67902
 Alpha virt. eigenvalues --    2.74103   2.85538   2.88505   2.89242   2.95077
 Alpha virt. eigenvalues --    3.19397   3.21285   3.22456   3.23985   3.25877
 Alpha virt. eigenvalues --    3.26161   3.28065   3.31442   3.57344   3.58028
 Alpha virt. eigenvalues --    3.58524   3.71134   3.71631   3.71949   3.73627
 Alpha virt. eigenvalues --    3.74266   3.74589   3.79221   3.81438   3.82660
 Alpha virt. eigenvalues --    3.88263   3.99100   3.99383   3.99942   4.04866
 Alpha virt. eigenvalues --    4.06067   4.09106   4.15502   4.15762   4.18567
 Alpha virt. eigenvalues --    4.20347   4.20981   4.32012   4.33773   4.35160
 Alpha virt. eigenvalues --    4.35757   4.35944   4.38141   4.39053   4.40827
 Alpha virt. eigenvalues --    4.41799   4.42754   4.44751   4.50093   4.50313
 Alpha virt. eigenvalues --    4.52521   4.53014   4.53447   4.59644   4.60266
 Alpha virt. eigenvalues --    4.66089   4.75903   4.78491   4.78885   4.79266
 Alpha virt. eigenvalues --    4.79901   4.91683   4.91979   4.92454   5.14105
 Alpha virt. eigenvalues --    5.14596   5.14961   5.15098   5.16166   5.17389
 Alpha virt. eigenvalues --    5.22192   5.29316   5.30036   5.30826   5.32127
 Alpha virt. eigenvalues --    5.32649   5.41078   5.43303   5.47536   5.48391
 Alpha virt. eigenvalues --    5.48680   5.56755   5.58120   5.58485   5.66772
 Alpha virt. eigenvalues --    6.04284   6.05583   6.07191   6.13414   6.13839
 Alpha virt. eigenvalues --    6.14543   6.23827   6.23842   6.79780   6.80407
 Alpha virt. eigenvalues --    6.93097   7.00170   7.65335   7.66096   7.66593
 Alpha virt. eigenvalues --    8.02262   8.03426   8.08385  10.34585  16.59429
 Alpha virt. eigenvalues --   52.62865
          Condensed to atoms (all electrons):
 Mulliken charges:
               1
     1  C   -1.805139
     2  H    0.431004
     3  H    0.459351
     4  H    0.468360
     5  H    0.439209
     6  C    0.006004
     7  H    0.000645
     8  H    0.000729
     9  H   -0.000310
    10  H    0.000147
 Sum of Mulliken charges =   0.00000
 Mulliken charges with hydrogens summed into heavy atoms:
               1
     1  C   -0.007215
     6  C    0.007215
 Electronic spatial extent (au):  <R**2>=             36.5433
 Charge=              0.0000 electrons
 Dipole moment (field-independent basis, Debye):
    X=              0.0000    Y=             -0.0001    Z=             -0.0002  Tot=              0.0002

 Test job not archived.
 1\1\GINC-CHIMERA-NODE25\SP\RM05\Gen\C2H8\CONNORNM\06-Dec-2018\0\\#T M0
 5/Gen test Massage Symmetry=None SCF=(tight,maxcyc=60)\\M05 opt\\0,1\C
 ,0,0.,0.,0.\H,0,0.65831566,0.,-0.89028447\H,0,-1.02626052,-0.28787547,
 -0.29983831\H,0,0.38442948,-0.7250673,0.74328819\H,0,-0.01648462,1.012
 94277,0.44683459\C,0,0.,0.,4.54351031\H,0,-0.3605832,1.01995398,4.7794
 3317\H,0,-0.7137522,-0.7456716,4.94415681\H,0,0.07995484,-0.11842908,3
 .44552682\H,0,0.99438057,-0.1558533,5.00492443\\Version=AS64L-G09RevD.
 01\HF=-40.9122207\RMSD=3.738e-09\Dipole=0.0000015,-0.0000313,-0.000091
 9\Quadrupole=-0.0004632,0.0002029,0.0002602,-0.0005459,-0.0002657,0.00
 01774\PG=Unknown\\@


 TELEVISION IS CALLED A MEDIUM BECAUSE IT ISN'T
 RARE, AND IT ISN'T WELL DONE.
 Job cpu time:       0 days  0 hours 10 minutes 25.8 seconds.
 File lengths (MBytes):  RWF=     41 Int=      0 D2E=      0 Chk=      4 Scr=      1
 Normal termination of Gaussian 09 at Thu Dec  6 13:20:35 2018.
