 Entering Gaussian System, Link 0=/data/szalewicgrp/connornm/opt/Gaussian/g09-M05-par/g09/g09
 AtFile(1): aug-cc-pVTZ.gbs
 Initial command:
 /data/szalewicgrp/connornm/opt/Gaussian/g09-M05-par/g09/l1.exe "/scratch/local/Gau-29389.inp" -scrdir="/scratch/local/"
 Entering Link 1 = /data/szalewicgrp/connornm/opt/Gaussian/g09-M05-par/g09/l1.exe PID=     29390.
  
 Copyright (c) 1988,1990,1992,1993,1995,1998,2003,2009,2013,
            Gaussian, Inc.  All Rights Reserved.
  
 This is part of the Gaussian(R) 09 program.  It is based on
 the Gaussian(R) 03 system (copyright 2003, Gaussian, Inc.),
 the Gaussian(R) 98 system (copyright 1998, Gaussian, Inc.),
 the Gaussian(R) 94 system (copyright 1995, Gaussian, Inc.),
 the Gaussian 92(TM) system (copyright 1992, Gaussian, Inc.),
 the Gaussian 90(TM) system (copyright 1990, Gaussian, Inc.),
 the Gaussian 88(TM) system (copyright 1988, Gaussian, Inc.),
 the Gaussian 86(TM) system (copyright 1986, Carnegie Mellon
 University), and the Gaussian 82(TM) system (copyright 1983,
 Carnegie Mellon University). Gaussian is a federally registered
 trademark of Gaussian, Inc.
  
 This software contains proprietary and confidential information,
 including trade secrets, belonging to Gaussian, Inc.
  
 This software is provided under written license and may be
 used, copied, transmitted, or stored only in accord with that
 written license.
  
 The following legend is applicable only to US Government
 contracts under FAR:
  
                    RESTRICTED RIGHTS LEGEND
  
 Use, reproduction and disclosure by the US Government is
 subject to restrictions as set forth in subparagraphs (a)
 and (c) of the Commercial Computer Software - Restricted
 Rights clause in FAR 52.227-19.
  
 Gaussian, Inc.
 340 Quinnipiac St., Bldg. 40, Wallingford CT 06492
  
  
 ---------------------------------------------------------------
 Warning -- This program may not be used in any manner that
 competes with the business of Gaussian, Inc. or will provide
 assistance to any competitor of Gaussian, Inc.  The licensee
 of this program is prohibited from giving any competitor of
 Gaussian, Inc. access to this program.  By using this program,
 the user acknowledges that Gaussian, Inc. is engaged in the
 business of creating and licensing software in the field of
 computational chemistry and represents and warrants to the
 licensee that it is not a competitor of Gaussian, Inc. and that
 it will not use this program in any manner prohibited above.
 ---------------------------------------------------------------
  

 Cite this work as:
 Gaussian 09, Revision D.01,
 M. J. Frisch, G. W. Trucks, H. B. Schlegel, G. E. Scuseria, 
 M. A. Robb, J. R. Cheeseman, G. Scalmani, V. Barone, B. Mennucci, 
 G. A. Petersson, H. Nakatsuji, M. Caricato, X. Li, H. P. Hratchian, 
 A. F. Izmaylov, J. Bloino, G. Zheng, J. L. Sonnenberg, M. Hada, 
 M. Ehara, K. Toyota, R. Fukuda, J. Hasegawa, M. Ishida, T. Nakajima, 
 Y. Honda, O. Kitao, H. Nakai, T. Vreven, J. A. Montgomery, Jr., 
 J. E. Peralta, F. Ogliaro, M. Bearpark, J. J. Heyd, E. Brothers, 
 K. N. Kudin, V. N. Staroverov, T. Keith, R. Kobayashi, J. Normand, 
 K. Raghavachari, A. Rendell, J. C. Burant, S. S. Iyengar, J. Tomasi, 
 M. Cossi, N. Rega, J. M. Millam, M. Klene, J. E. Knox, J. B. Cross, 
 V. Bakken, C. Adamo, J. Jaramillo, R. Gomperts, R. E. Stratmann, 
 O. Yazyev, A. J. Austin, R. Cammi, C. Pomelli, J. W. Ochterski, 
 R. L. Martin, K. Morokuma, V. G. Zakrzewski, G. A. Voth, 
 P. Salvador, J. J. Dannenberg, S. Dapprich, A. D. Daniels, 
 O. Farkas, J. B. Foresman, J. V. Ortiz, J. Cioslowski, 
 and D. J. Fox, Gaussian, Inc., Wallingford CT, 2013.
 
 ******************************************
 Gaussian 09:  AS64L-G09RevD.01 24-Apr-2013
                 6-Dec-2018 
 ******************************************
 %Chk=CH400277
 %Mem=2GB
 %NProcShared=16
 Will use up to   16 processors via shared memory.
 -----------------------------------------------------------
 #T M05/Gen test Massage Symmetry=None SCF=(tight,maxcyc=60)
 -----------------------------------------------------------
 -------
 M05 opt
 -------
 Symbolic Z-matrix:
 Charge =  0 Multiplicity = 1
 6                     0.        0.        0. 
 1                     1.09301   0.        0.17694 
 1                    -0.42703   0.96739   0.32831 
 1                    -0.19911  -0.14393  -1.07964 
 1                    -0.46687  -0.82346   0.57439 
 6-Bq                  0.        0.        4.72149 
 1-Bq                  0.18856  -0.14433   5.80297 
 1-Bq                  0.79141  -0.50881   4.13773 
 1-Bq                 -0.98627  -0.42896   4.45833 
 1-Bq                  0.0063    1.08209   4.48693 
 
                    Distance matrix (angstroms):
                    1          2          3          4          5
     1  C    0.000000
     2  H    1.107243   0.000000
     3  H    1.107242   1.808119   0.000000
     4  H    1.107243   1.808119   1.808119   0.000000
     5  H    1.107243   1.808119   1.808119   1.808119   0.000000
     6  C    4.721488   4.674142   4.518652   5.806330   4.253759
     7  H    5.807825   5.700095   5.620210   6.893520   5.313081
     8  H    4.243350   4.004711   4.263266   5.323084   3.792049
     9  H    4.586222   4.778883   4.395406   5.600892   3.938322
    10  H    4.615567   4.574695   4.182705   5.703682   4.377551
                    6          7          8          9         10
     6  C    0.000000
     7  H    1.107243   0.000000
     8  H    1.107243   1.808119   0.000000
     9  H    1.107242   1.808119   1.808119   0.000000
    10  H    1.107242   1.808119   1.808119   1.808119   0.000000
 Symmetry turned off by external request.
 Rotational constants (GHZ):     76.6916055      2.7276759      2.7276759
   276 basis functions,   360 primitive gaussians,   310 cartesian basis functions
     5 alpha electrons        5 beta electrons
       nuclear repulsion energy        13.2261669765 Hartrees.
 IMHF & INEx in M05                  614413                  385587
 NAtoms=   10 NActive=   10 NUniq=   10 SFac= 1.00D+00 NAtFMM=   60 NAOKFM=F Big=F
 ExpMin= 2.53D-02 ExpMax= 8.24D+03 ExpMxC= 2.81D+02 IAcc=3 IRadAn=         5 AccDes= 0.00D+00
 Harris functional with IExCor= 1009 and IRadAn=       5 diagonalized for initial guess.
 HarFok:  IExCor= 1009 AccDes= 0.00D+00 IRadAn=         5 IDoV= 1 UseB2=F ITyADJ=14
 ICtDFT=  3500011 ScaDFX=  1.000000  1.000000  1.000000  1.000000
 FoFCou: FMM=F IPFlag=           0 FMFlag=      100000 FMFlg1=           0
         NFxFlg=           0 DoJE=T BraDBF=F KetDBF=T FulRan=T
         wScrn=  0.000000 ICntrl=     500 IOpCl=  0 I1Cent=   200000004 NGrid=           0
         NMat0=    1 NMatS0=      1 NMatT0=    0 NMatD0=    1 NMtDS0=    0 NMtDT0=    0
 Symmetry not used in FoFCou.
 EnCoef did   100 forward-backward iterations
 SCF Done:  E(RM05) =  -47.0977560169     A.U. after   20 cycles
            NFock= 20  Conv=0.30D-08     -V/T= 2.0186

 **********************************************************************

            Population analysis using the SCF density.

 **********************************************************************

 Alpha  occ. eigenvalues --  -11.25597  -0.78149  -0.59346  -0.59342  -0.59341
 Alpha virt. eigenvalues --   -0.27370  -0.22590  -0.22564  -0.22562  -0.18423
 Alpha virt. eigenvalues --   -0.18174  -0.18168  -0.16106  -0.15938  -0.08231
 Alpha virt. eigenvalues --   -0.06434  -0.06229  -0.05752  -0.04491  -0.03612
 Alpha virt. eigenvalues --   -0.03174  -0.03086  -0.00558  -0.00506  -0.00459
 Alpha virt. eigenvalues --    0.00869   0.03581   0.03882   0.04369   0.04881
 Alpha virt. eigenvalues --    0.05312   0.06745   0.07518   0.07929   0.08532
 Alpha virt. eigenvalues --    0.08667   0.09570   0.10088   0.10575   0.11430
 Alpha virt. eigenvalues --    0.12551   0.13129   0.14091   0.14402   0.17549
 Alpha virt. eigenvalues --    0.17788   0.19237   0.20570   0.21252   0.22675
 Alpha virt. eigenvalues --    0.23823   0.25028   0.25575   0.26607   0.27520
 Alpha virt. eigenvalues --    0.29373   0.30170   0.30855   0.31175   0.33209
 Alpha virt. eigenvalues --    0.34112   0.34566   0.34865   0.35528   0.36237
 Alpha virt. eigenvalues --    0.36493   0.38071   0.38828   0.39970   0.40754
 Alpha virt. eigenvalues --    0.40999   0.41720   0.42964   0.43483   0.44645
 Alpha virt. eigenvalues --    0.45659   0.46263   0.47044   0.47939   0.49313
 Alpha virt. eigenvalues --    0.49536   0.51012   0.51911   0.52749   0.53016
 Alpha virt. eigenvalues --    0.53576   0.54784   0.55918   0.56737   0.56979
 Alpha virt. eigenvalues --    0.58798   0.60256   0.61445   0.61575   0.62844
 Alpha virt. eigenvalues --    0.63630   0.65625   0.77568   0.78223   0.80030
 Alpha virt. eigenvalues --    0.83483   0.84218   0.84720   0.84934   0.85962
 Alpha virt. eigenvalues --    0.86249   0.86345   0.87489   0.88298   0.89317
 Alpha virt. eigenvalues --    0.91991   0.92911   0.95670   0.97937   0.98169
 Alpha virt. eigenvalues --    0.99178   0.99729   1.00401   1.00973   1.01162
 Alpha virt. eigenvalues --    1.01469   1.01785   1.03063   1.04167   1.04386
 Alpha virt. eigenvalues --    1.05534   1.07519   1.08427   1.09268   1.10647
 Alpha virt. eigenvalues --    1.12074   1.13955   1.16473   1.16683   1.17779
 Alpha virt. eigenvalues --    1.18917   1.19056   1.20288   1.20829   1.22375
 Alpha virt. eigenvalues --    1.26907   1.27233   1.31163   1.32489   1.33077
 Alpha virt. eigenvalues --    1.33780   1.34770   1.35219   1.41279   1.47518
 Alpha virt. eigenvalues --    1.47662   1.49150   1.56675   1.63200   1.63956
 Alpha virt. eigenvalues --    1.66170   1.77631   1.78413   1.79330   1.87691
 Alpha virt. eigenvalues --    1.94901   1.95427   1.95790   1.95939   1.96543
 Alpha virt. eigenvalues --    1.96962   1.97400   1.98762   2.00672   2.01191
 Alpha virt. eigenvalues --    2.01683   2.05014   2.05552   2.08299   2.15044
 Alpha virt. eigenvalues --    2.15107   2.15201   2.20925   2.21294   2.21706
 Alpha virt. eigenvalues --    2.22253   2.22839   2.23147   2.25044   2.28883
 Alpha virt. eigenvalues --    2.28944   2.29308   2.29697   2.30049   2.39802
 Alpha virt. eigenvalues --    2.40299   2.60644   2.60827   2.62855   2.63094
 Alpha virt. eigenvalues --    2.63809   2.63910   2.63976   2.64222   2.64838
 Alpha virt. eigenvalues --    2.65027   2.65198   2.65864   2.66744   2.67445
 Alpha virt. eigenvalues --    2.72746   2.78656   2.91359   2.91413   2.92731
 Alpha virt. eigenvalues --    3.09773   3.22718   3.22887   3.23029   3.25701
 Alpha virt. eigenvalues --    3.25713   3.26214   3.26454   3.27734   3.61283
 Alpha virt. eigenvalues --    3.75298   3.75646   3.77503   3.94837   3.95175
 Alpha virt. eigenvalues --    3.96028   3.98313   3.98606   3.98964   4.11722
 Alpha virt. eigenvalues --    4.12338   4.30892   4.32392   4.32763   4.37668
 Alpha virt. eigenvalues --    4.39140   4.44745   4.48699   4.48874   4.55967
 Alpha virt. eigenvalues --    4.56103   4.56306   4.70893   4.87614   4.87767
 Alpha virt. eigenvalues --    4.90491   5.10347   5.11608   5.12503   5.25980
 Alpha virt. eigenvalues --    5.26131   5.26322   5.36954   5.37276   5.43149
 Alpha virt. eigenvalues --    5.43736   5.44212   5.48090   6.09762   6.10549
 Alpha virt. eigenvalues --    6.10861   6.20684   6.20852   6.76062   6.76416
 Alpha virt. eigenvalues --    6.78467   6.92307   7.61317   7.62186   7.65577
 Alpha virt. eigenvalues --    7.99739   8.00484   8.05024  10.23600  12.53824
 Alpha virt. eigenvalues --   52.17884
          Condensed to atoms (all electrons):
 Mulliken charges:
               1
     1  C    0.168631
     2  H    0.031057
     3  H    0.023155
     4  H   -0.282323
     5  H    0.067747
     6  C   -0.002369
     7  H    0.001724
     8  H   -0.005863
     9  H   -0.001324
    10  H   -0.000436
 Sum of Mulliken charges =  -0.00000
 Mulliken charges with hydrogens summed into heavy atoms:
               1
     1  C    0.008268
     6  C   -0.008268
 Electronic spatial extent (au):  <R**2>=             40.1081
 Charge=             -0.0000 electrons
 Dipole moment (field-independent basis, Debye):
    X=             -0.0002    Y=             -0.0003    Z=             -0.0028  Tot=              0.0028

 Test job not archived.
 1\1\GINC-CHIMERA-NODE47\SP\RM05\Gen\C2H8\CONNORNM\06-Dec-2018\0\\#T M0
 5/Gen test Massage Symmetry=None SCF=(tight,maxcyc=60)\\M05 opt\\0,1\C
 ,0,0.,0.,0.\H,0,1.09301344,0.,0.17693948\H,0,-0.42703315,0.96738887,0.
 32830994\H,0,-0.19911076,-0.14392532,-1.07964178\H,0,-0.46686953,-0.82
 346355,0.57439236\C,0,0.,0.,4.72148828\H,0,0.18855967,-0.14432677,5.80
 296921\H,0,0.79140632,-0.50880986,4.13772932\H,0,-0.98627049,-0.428956
 84,4.45832959\H,0,0.00630451,1.08209347,4.48692501\\Version=AS64L-G09R
 evD.01\HF=-47.097756\RMSD=2.979e-09\Dipole=-0.000065,-0.0001292,-0.001
 1097\Quadrupole=0.0014048,0.0011578,-0.0025626,-0.0004213,-0.0002123,0
 .0003078\PG=Unknown\\@


 IF AT FIRST YOU DON'T SUCCEED, TRY, TRY AGAIN.
 THEN GIVE UP;
 THERE'S NO USE BEING A DAMN FOOL ABOUT IT.

                                 -- W. C. FIELDS
 Job cpu time:       0 days  0 hours 28 minutes  5.5 seconds.
 File lengths (MBytes):  RWF=     41 Int=      0 D2E=      0 Chk=      4 Scr=      1
 Normal termination of Gaussian 09 at Thu Dec  6 13:17:42 2018.
