 Entering Gaussian System, Link 0=/data/szalewicgrp/connornm/opt/Gaussian/g09-M05-par/g09/g09
 AtFile(1): aug-cc-pVTZ.gbs
 Initial command:
 /data/szalewicgrp/connornm/opt/Gaussian/g09-M05-par/g09/l1.exe "/scratch/local/Gau-17544.inp" -scrdir="/scratch/local/"
 Entering Link 1 = /data/szalewicgrp/connornm/opt/Gaussian/g09-M05-par/g09/l1.exe PID=     17545.
  
 Copyright (c) 1988,1990,1992,1993,1995,1998,2003,2009,2013,
            Gaussian, Inc.  All Rights Reserved.
  
 This is part of the Gaussian(R) 09 program.  It is based on
 the Gaussian(R) 03 system (copyright 2003, Gaussian, Inc.),
 the Gaussian(R) 98 system (copyright 1998, Gaussian, Inc.),
 the Gaussian(R) 94 system (copyright 1995, Gaussian, Inc.),
 the Gaussian 92(TM) system (copyright 1992, Gaussian, Inc.),
 the Gaussian 90(TM) system (copyright 1990, Gaussian, Inc.),
 the Gaussian 88(TM) system (copyright 1988, Gaussian, Inc.),
 the Gaussian 86(TM) system (copyright 1986, Carnegie Mellon
 University), and the Gaussian 82(TM) system (copyright 1983,
 Carnegie Mellon University). Gaussian is a federally registered
 trademark of Gaussian, Inc.
  
 This software contains proprietary and confidential information,
 including trade secrets, belonging to Gaussian, Inc.
  
 This software is provided under written license and may be
 used, copied, transmitted, or stored only in accord with that
 written license.
  
 The following legend is applicable only to US Government
 contracts under FAR:
  
                    RESTRICTED RIGHTS LEGEND
  
 Use, reproduction and disclosure by the US Government is
 subject to restrictions as set forth in subparagraphs (a)
 and (c) of the Commercial Computer Software - Restricted
 Rights clause in FAR 52.227-19.
  
 Gaussian, Inc.
 340 Quinnipiac St., Bldg. 40, Wallingford CT 06492
  
  
 ---------------------------------------------------------------
 Warning -- This program may not be used in any manner that
 competes with the business of Gaussian, Inc. or will provide
 assistance to any competitor of Gaussian, Inc.  The licensee
 of this program is prohibited from giving any competitor of
 Gaussian, Inc. access to this program.  By using this program,
 the user acknowledges that Gaussian, Inc. is engaged in the
 business of creating and licensing software in the field of
 computational chemistry and represents and warrants to the
 licensee that it is not a competitor of Gaussian, Inc. and that
 it will not use this program in any manner prohibited above.
 ---------------------------------------------------------------
  

 Cite this work as:
 Gaussian 09, Revision D.01,
 M. J. Frisch, G. W. Trucks, H. B. Schlegel, G. E. Scuseria, 
 M. A. Robb, J. R. Cheeseman, G. Scalmani, V. Barone, B. Mennucci, 
 G. A. Petersson, H. Nakatsuji, M. Caricato, X. Li, H. P. Hratchian, 
 A. F. Izmaylov, J. Bloino, G. Zheng, J. L. Sonnenberg, M. Hada, 
 M. Ehara, K. Toyota, R. Fukuda, J. Hasegawa, M. Ishida, T. Nakajima, 
 Y. Honda, O. Kitao, H. Nakai, T. Vreven, J. A. Montgomery, Jr., 
 J. E. Peralta, F. Ogliaro, M. Bearpark, J. J. Heyd, E. Brothers, 
 K. N. Kudin, V. N. Staroverov, T. Keith, R. Kobayashi, J. Normand, 
 K. Raghavachari, A. Rendell, J. C. Burant, S. S. Iyengar, J. Tomasi, 
 M. Cossi, N. Rega, J. M. Millam, M. Klene, J. E. Knox, J. B. Cross, 
 V. Bakken, C. Adamo, J. Jaramillo, R. Gomperts, R. E. Stratmann, 
 O. Yazyev, A. J. Austin, R. Cammi, C. Pomelli, J. W. Ochterski, 
 R. L. Martin, K. Morokuma, V. G. Zakrzewski, G. A. Voth, 
 P. Salvador, J. J. Dannenberg, S. Dapprich, A. D. Daniels, 
 O. Farkas, J. B. Foresman, J. V. Ortiz, J. Cioslowski, 
 and D. J. Fox, Gaussian, Inc., Wallingford CT, 2013.
 
 ******************************************
 Gaussian 09:  AS64L-G09RevD.01 24-Apr-2013
                 6-Dec-2018 
 ******************************************
 %Chk=CH400071
 %Mem=2GB
 %NProcShared=16
 Will use up to   16 processors via shared memory.
 -----------------------------------------------------------
 #T M05/Gen test Massage Symmetry=None SCF=(tight,maxcyc=60)
 -----------------------------------------------------------
 -------
 M05 opt
 -------
 Symbolic Z-matrix:
 Charge =  0 Multiplicity = 1
 6                     0.        0.        0. 
 1                     1.10724   0.        0.00304 
 1                    -0.36677  -0.61658  -0.84338 
 1                    -0.3717   -0.42122   0.95415 
 1                    -0.36877   1.03781  -0.1138 
 6-Bq                  0.        0.        3.01691 
 1-Bq                  0.08023  -0.63415   3.92102 
 1-Bq                  0.34726  -0.57062   2.13385 
 1-Bq                 -1.05525   0.30141   2.86996 
 1-Bq                  0.62776   0.90336   3.14282 
 
                    Distance matrix (angstroms):
                    1          2          3          4          5
     1  C    0.000000
     2  H    1.107242   0.000000
     3  H    1.107243   1.808119   0.000000
     4  H    1.107243   1.808119   1.808119   0.000000
     5  H    1.107243   1.808119   1.808119   1.808119   0.000000
     6  C    3.016914   3.210829   3.926394   2.137895   3.318800
     7  H    3.972779   4.099690   4.785356   3.008640   4.390540
     8  H    2.235963   2.333142   3.062005   1.389579   2.855118
     9  H    3.072632   3.603670   3.886595   2.158651   3.149031
    10  H    3.329782   3.302148   4.380536   2.746582   3.408334
                    6          7          8          9         10
     6  C    0.000000
     7  H    1.107242   0.000000
     8  H    1.107242   1.808119   0.000000
     9  H    1.107243   1.808119   1.808119   0.000000
    10  H    1.107243   1.808119   1.808119   1.808119   0.000000
 Symmetry turned off by external request.
 Rotational constants (GHZ):     76.6916053      6.3532644      6.3532644
   276 basis functions,   360 primitive gaussians,   310 cartesian basis functions
     5 alpha electrons        5 beta electrons
       nuclear repulsion energy        13.2261669754 Hartrees.
 IMHF & INEx in M05                  614413                  385587
 NAtoms=   10 NActive=   10 NUniq=   10 SFac= 1.00D+00 NAtFMM=   60 NAOKFM=F Big=F
 ExpMin= 2.53D-02 ExpMax= 8.24D+03 ExpMxC= 2.81D+02 IAcc=3 IRadAn=         5 AccDes= 0.00D+00
 Harris functional with IExCor= 1009 and IRadAn=       5 diagonalized for initial guess.
 HarFok:  IExCor= 1009 AccDes= 0.00D+00 IRadAn=         5 IDoV= 1 UseB2=F ITyADJ=14
 ICtDFT=  3500011 ScaDFX=  1.000000  1.000000  1.000000  1.000000
 FoFCou: FMM=F IPFlag=           0 FMFlag=      100000 FMFlg1=           0
         NFxFlg=           0 DoJE=T BraDBF=F KetDBF=T FulRan=T
         wScrn=  0.000000 ICntrl=     500 IOpCl=  0 I1Cent=   200000004 NGrid=           0
         NMat0=    1 NMatS0=      1 NMatT0=    0 NMatD0=    1 NMtDS0=    0 NMtDT0=    0
 Symmetry not used in FoFCou.
 EnCoef did   100 forward-backward iterations
 Restarting incremental Fock formation.
 SCF Done:  E(RM05) =  -47.1005913350     A.U. after   22 cycles
            NFock= 22  Conv=0.64D-08     -V/T= 2.0178

 **********************************************************************

            Population analysis using the SCF density.

 **********************************************************************

 Alpha  occ. eigenvalues --  -11.25543  -0.78113  -0.59328  -0.59306  -0.59299
 Alpha virt. eigenvalues --   -0.27473  -0.22726  -0.22645  -0.22629  -0.18679
 Alpha virt. eigenvalues --   -0.18560  -0.18398  -0.16985  -0.16597  -0.08355
 Alpha virt. eigenvalues --   -0.07113  -0.06503  -0.05988  -0.05114  -0.04577
 Alpha virt. eigenvalues --   -0.04146  -0.03181  -0.00814  -0.00573  -0.00490
 Alpha virt. eigenvalues --    0.01098   0.01772   0.02497   0.04087   0.05371
 Alpha virt. eigenvalues --    0.05935   0.05938   0.06285   0.06751   0.06872
 Alpha virt. eigenvalues --    0.07765   0.09256   0.09453   0.10004   0.10511
 Alpha virt. eigenvalues --    0.10626   0.11367   0.11510   0.12302   0.13014
 Alpha virt. eigenvalues --    0.13908   0.14811   0.15943   0.17616   0.20382
 Alpha virt. eigenvalues --    0.21503   0.23442   0.23630   0.25148   0.25847
 Alpha virt. eigenvalues --    0.26840   0.27590   0.28922   0.29437   0.30214
 Alpha virt. eigenvalues --    0.31748   0.33223   0.33777   0.34053   0.34870
 Alpha virt. eigenvalues --    0.35315   0.36671   0.36920   0.37289   0.37666
 Alpha virt. eigenvalues --    0.38259   0.39587   0.39922   0.41306   0.41782
 Alpha virt. eigenvalues --    0.43749   0.44545   0.46465   0.46772   0.48928
 Alpha virt. eigenvalues --    0.49971   0.51533   0.52027   0.52786   0.54463
 Alpha virt. eigenvalues --    0.54749   0.55167   0.56343   0.57409   0.58771
 Alpha virt. eigenvalues --    0.59883   0.60174   0.61227   0.62714   0.63894
 Alpha virt. eigenvalues --    0.67125   0.68156   0.68598   0.70858   0.71848
 Alpha virt. eigenvalues --    0.72677   0.75410   0.75610   0.80084   0.80491
 Alpha virt. eigenvalues --    0.81524   0.83482   0.84349   0.85020   0.86290
 Alpha virt. eigenvalues --    0.86615   0.87341   0.88169   0.88428   0.90209
 Alpha virt. eigenvalues --    0.91492   0.92885   0.93788   0.94513   0.96092
 Alpha virt. eigenvalues --    0.97608   0.99083   0.99727   1.01966   1.02546
 Alpha virt. eigenvalues --    1.03070   1.03652   1.04744   1.05693   1.07486
 Alpha virt. eigenvalues --    1.08088   1.08618   1.11104   1.14643   1.14899
 Alpha virt. eigenvalues --    1.17339   1.18087   1.19996   1.21346   1.23721
 Alpha virt. eigenvalues --    1.24230   1.26113   1.27746   1.28327   1.30215
 Alpha virt. eigenvalues --    1.33756   1.36549   1.37509   1.40142   1.41240
 Alpha virt. eigenvalues --    1.46173   1.47993   1.48816   1.51199   1.53054
 Alpha virt. eigenvalues --    1.53843   1.56437   1.60636   1.62746   1.65278
 Alpha virt. eigenvalues --    1.68912   1.71841   1.72120   1.75162   1.77990
 Alpha virt. eigenvalues --    1.85420   1.90010   1.96272   1.98641   2.00765
 Alpha virt. eigenvalues --    2.01571   2.05758   2.07103   2.08451   2.10160
 Alpha virt. eigenvalues --    2.11246   2.12790   2.15474   2.16357   2.18153
 Alpha virt. eigenvalues --    2.20199   2.22531   2.23232   2.24627   2.25461
 Alpha virt. eigenvalues --    2.27658   2.30051   2.30156   2.33989   2.35668
 Alpha virt. eigenvalues --    2.36718   2.39209   2.40877   2.44259   2.45089
 Alpha virt. eigenvalues --    2.62054   2.63005   2.64674   2.64954   2.66504
 Alpha virt. eigenvalues --    2.67895   2.69558   2.71342   2.72199   2.73128
 Alpha virt. eigenvalues --    2.77563   2.82090   2.91121   2.93067   2.94562
 Alpha virt. eigenvalues --    3.03004   3.08684   3.12281   3.17667   3.22157
 Alpha virt. eigenvalues --    3.23687   3.24241   3.26436   3.27065   3.28332
 Alpha virt. eigenvalues --    3.31571   3.33213   3.38239   3.40436   3.52735
 Alpha virt. eigenvalues --    3.54369   3.60566   3.64430   3.67957   3.73111
 Alpha virt. eigenvalues --    3.76633   3.77096   3.81048   3.81770   3.83837
 Alpha virt. eigenvalues --    3.88903   3.94198   4.01304   4.05068   4.10076
 Alpha virt. eigenvalues --    4.11556   4.22827   4.26045   4.29537   4.36196
 Alpha virt. eigenvalues --    4.41119   4.50439   4.53067   4.59798   4.64550
 Alpha virt. eigenvalues --    4.67873   4.78934   4.87141   4.90907   4.99620
 Alpha virt. eigenvalues --    5.09768   5.11668   5.19072   5.44375   5.48086
 Alpha virt. eigenvalues --    5.54652   5.65097   5.70947   5.76152   6.21473
 Alpha virt. eigenvalues --    6.31167   6.42723   6.48704   7.02559   7.19231
 Alpha virt. eigenvalues --    7.34419   7.39194   7.44439   9.46658  13.01206
 Alpha virt. eigenvalues --   51.30326
          Condensed to atoms (all electrons):
 Mulliken charges:
               1
     1  C   -0.637857
     2  H   -0.009837
     3  H   -0.627216
     4  H    1.558873
     5  H   -0.030749
     6  C   -0.046328
     7  H    0.015352
     8  H   -0.315793
     9  H    0.193758
    10  H   -0.100204
 Sum of Mulliken charges =  -0.00000
 Mulliken charges with hydrogens summed into heavy atoms:
               1
     1  C    0.253214
     6  C   -0.253214
 Electronic spatial extent (au):  <R**2>=             40.0820
 Charge=             -0.0000 electrons
 Dipole moment (field-independent basis, Debye):
    X=             -0.0050    Y=             -0.0014    Z=             -0.0021  Tot=              0.0056

 Test job not archived.
 1\1\GINC-CHIMERA-NODE41\SP\RM05\Gen\C2H8\CONNORNM\06-Dec-2018\0\\#T M0
 5/Gen test Massage Symmetry=None SCF=(tight,maxcyc=60)\\M05 opt\\0,1\C
 ,0,0.,0.,0.\H,0,1.10723833,0.,0.0030386\H,0,-0.36676773,-0.61658458,-0
 .84338061\H,0,-0.3717007,-0.42122232,0.9541469\H,0,-0.36876991,1.03780
 69,-0.11380489\C,0,0.,0.,3.01691381\H,0,0.08023366,-0.63414598,3.92101
 966\H,0,0.34725711,-0.57061815,2.13385471\H,0,-1.05524667,0.3014058,2.
 86996154\H,0,0.6277559,0.90335834,3.14281934\\Version=AS64L-G09RevD.01
 \HF=-47.1005913\RMSD=6.353e-09\Dipole=-0.0019653,-0.0005485,-0.0008328
 \Quadrupole=0.0022058,0.0058835,-0.0080893,0.0035485,-0.0095121,0.0002
 717\PG=Unknown\\@


 SIC AS THE CAWSE OF EWERY THING IS, SIC WILBE THE EFFECT.
 -- PROVERBS AND REASONS OF THE YEAR 1585
           AS REPRINTED IN PAISLEY MAGAZINE 1828.
 Job cpu time:       0 days  0 hours 38 minutes 50.1 seconds.
 File lengths (MBytes):  RWF=     41 Int=      0 D2E=      0 Chk=      4 Scr=      1
 Normal termination of Gaussian 09 at Thu Dec  6 13:18:22 2018.
