 Entering Gaussian System, Link 0=/data/szalewicgrp/connornm/opt/Gaussian/g09-M05-par/g09/g09
 AtFile(1): aug-cc-pVTZ.gbs
 Initial command:
 /data/szalewicgrp/connornm/opt/Gaussian/g09-M05-par/g09/l1.exe "/scratch/local/Gau-24492.inp" -scrdir="/scratch/local/"
 Entering Link 1 = /data/szalewicgrp/connornm/opt/Gaussian/g09-M05-par/g09/l1.exe PID=     24493.
  
 Copyright (c) 1988,1990,1992,1993,1995,1998,2003,2009,2013,
            Gaussian, Inc.  All Rights Reserved.
  
 This is part of the Gaussian(R) 09 program.  It is based on
 the Gaussian(R) 03 system (copyright 2003, Gaussian, Inc.),
 the Gaussian(R) 98 system (copyright 1998, Gaussian, Inc.),
 the Gaussian(R) 94 system (copyright 1995, Gaussian, Inc.),
 the Gaussian 92(TM) system (copyright 1992, Gaussian, Inc.),
 the Gaussian 90(TM) system (copyright 1990, Gaussian, Inc.),
 the Gaussian 88(TM) system (copyright 1988, Gaussian, Inc.),
 the Gaussian 86(TM) system (copyright 1986, Carnegie Mellon
 University), and the Gaussian 82(TM) system (copyright 1983,
 Carnegie Mellon University). Gaussian is a federally registered
 trademark of Gaussian, Inc.
  
 This software contains proprietary and confidential information,
 including trade secrets, belonging to Gaussian, Inc.
  
 This software is provided under written license and may be
 used, copied, transmitted, or stored only in accord with that
 written license.
  
 The following legend is applicable only to US Government
 contracts under FAR:
  
                    RESTRICTED RIGHTS LEGEND
  
 Use, reproduction and disclosure by the US Government is
 subject to restrictions as set forth in subparagraphs (a)
 and (c) of the Commercial Computer Software - Restricted
 Rights clause in FAR 52.227-19.
  
 Gaussian, Inc.
 340 Quinnipiac St., Bldg. 40, Wallingford CT 06492
  
  
 ---------------------------------------------------------------
 Warning -- This program may not be used in any manner that
 competes with the business of Gaussian, Inc. or will provide
 assistance to any competitor of Gaussian, Inc.  The licensee
 of this program is prohibited from giving any competitor of
 Gaussian, Inc. access to this program.  By using this program,
 the user acknowledges that Gaussian, Inc. is engaged in the
 business of creating and licensing software in the field of
 computational chemistry and represents and warrants to the
 licensee that it is not a competitor of Gaussian, Inc. and that
 it will not use this program in any manner prohibited above.
 ---------------------------------------------------------------
  

 Cite this work as:
 Gaussian 09, Revision D.01,
 M. J. Frisch, G. W. Trucks, H. B. Schlegel, G. E. Scuseria, 
 M. A. Robb, J. R. Cheeseman, G. Scalmani, V. Barone, B. Mennucci, 
 G. A. Petersson, H. Nakatsuji, M. Caricato, X. Li, H. P. Hratchian, 
 A. F. Izmaylov, J. Bloino, G. Zheng, J. L. Sonnenberg, M. Hada, 
 M. Ehara, K. Toyota, R. Fukuda, J. Hasegawa, M. Ishida, T. Nakajima, 
 Y. Honda, O. Kitao, H. Nakai, T. Vreven, J. A. Montgomery, Jr., 
 J. E. Peralta, F. Ogliaro, M. Bearpark, J. J. Heyd, E. Brothers, 
 K. N. Kudin, V. N. Staroverov, T. Keith, R. Kobayashi, J. Normand, 
 K. Raghavachari, A. Rendell, J. C. Burant, S. S. Iyengar, J. Tomasi, 
 M. Cossi, N. Rega, J. M. Millam, M. Klene, J. E. Knox, J. B. Cross, 
 V. Bakken, C. Adamo, J. Jaramillo, R. Gomperts, R. E. Stratmann, 
 O. Yazyev, A. J. Austin, R. Cammi, C. Pomelli, J. W. Ochterski, 
 R. L. Martin, K. Morokuma, V. G. Zakrzewski, G. A. Voth, 
 P. Salvador, J. J. Dannenberg, S. Dapprich, A. D. Daniels, 
 O. Farkas, J. B. Foresman, J. V. Ortiz, J. Cioslowski, 
 and D. J. Fox, Gaussian, Inc., Wallingford CT, 2013.
 
 ******************************************
 Gaussian 09:  AS64L-G09RevD.01 24-Apr-2013
                 5-Dec-2018 
 ******************************************
 %Chk=CH400141
 %Mem=2GB
 %NProcShared=16
 Will use up to   16 processors via shared memory.
 -----------------------------------------------------------
 #T M05/Gen test Massage Symmetry=None SCF=(tight,maxcyc=60)
 -----------------------------------------------------------
 -------
 M05 opt
 -------
 Symbolic Z-matrix:
 Charge =  0 Multiplicity = 1
 6                     0.        0.        0. 
 1                     0.6103    0.       -0.92386 
 1                     0.23923  -0.89906   0.60038 
 1                     0.22489   0.90898   0.5909 
 1                    -1.07442  -0.00992  -0.26742 
 6-Bq                  0.        0.        3.35867 
 1-Bq                  0.23043  -0.95811   2.85378 
 1-Bq                  0.17667  -0.10436   4.44673 
 1-Bq                  0.65303   0.7971    2.9535 
 1-Bq                 -1.06013   0.26536   3.18067 
 
                    Distance matrix (angstroms):
                    1          2          3          4          5
     1  C    0.000000
     2  H    1.107242   0.000000
     3  H    1.107243   1.808119   0.000000
     4  H    1.107242   1.808119   1.808119   0.000000
     5  H    1.107243   1.808119   1.808119   1.808119   0.000000
     6  C    3.358670   4.325799   2.910965   2.921876   3.781927
     7  H    3.019122   3.915713   2.254190   2.933708   3.513335
     8  H    4.451465   5.389084   3.928095   3.987057   4.878253
     9  H    3.128098   3.958680   2.930083   2.403686   3.742954
    10  H    3.363175   4.439361   3.114823   2.961826   3.459085
                    6          7          8          9         10
     6  C    0.000000
     7  H    1.107242   0.000000
     8  H    1.107243   1.808119   0.000000
     9  H    1.107243   1.808119   1.808119   0.000000
    10  H    1.107243   1.808119   1.808119   1.808119   0.000000
 Symmetry turned off by external request.
 Rotational constants (GHZ):     76.6916055      5.2094704      5.2094704
   276 basis functions,   360 primitive gaussians,   310 cartesian basis functions
     5 alpha electrons        5 beta electrons
       nuclear repulsion energy        13.2261669994 Hartrees.
 IMHF & INEx in M05                  614413                  385587
 NAtoms=   10 NActive=   10 NUniq=   10 SFac= 1.00D+00 NAtFMM=   60 NAOKFM=F Big=F
 ExpMin= 2.53D-02 ExpMax= 8.24D+03 ExpMxC= 2.81D+02 IAcc=3 IRadAn=         5 AccDes= 0.00D+00
 Harris functional with IExCor= 1009 and IRadAn=       5 diagonalized for initial guess.
 HarFok:  IExCor= 1009 AccDes= 0.00D+00 IRadAn=         5 IDoV= 1 UseB2=F ITyADJ=14
 ICtDFT=  3500011 ScaDFX=  1.000000  1.000000  1.000000  1.000000
 FoFCou: FMM=F IPFlag=           0 FMFlag=      100000 FMFlg1=           0
         NFxFlg=           0 DoJE=T BraDBF=F KetDBF=T FulRan=T
         wScrn=  0.000000 ICntrl=     500 IOpCl=  0 I1Cent=   200000004 NGrid=           0
         NMat0=    1 NMatS0=      1 NMatT0=    0 NMatD0=    1 NMtDS0=    0 NMtDT0=    0
 Symmetry not used in FoFCou.
 SCF Done:  E(RM05) =  -40.9122484932     A.U. after    7 cycles
            NFock=  7  Conv=0.53D-08     -V/T= 2.0127

 **********************************************************************

            Population analysis using the SCF density.

 **********************************************************************

 Alpha  occ. eigenvalues --  -10.74528  -0.82768  -0.48752  -0.48752  -0.48751
 Alpha virt. eigenvalues --   -0.00113   0.02349   0.02820   0.02977   0.04624
 Alpha virt. eigenvalues --    0.05159   0.05482   0.06945   0.08066   0.08896
 Alpha virt. eigenvalues --    0.10074   0.10791   0.11249   0.11664   0.12164
 Alpha virt. eigenvalues --    0.14221   0.15036   0.15782   0.16693   0.17399
 Alpha virt. eigenvalues --    0.20896   0.22272   0.23126   0.25025   0.26288
 Alpha virt. eigenvalues --    0.26911   0.27454   0.27956   0.28622   0.28904
 Alpha virt. eigenvalues --    0.29591   0.29813   0.30109   0.30826   0.32610
 Alpha virt. eigenvalues --    0.33592   0.33794   0.35401   0.35594   0.36194
 Alpha virt. eigenvalues --    0.36598   0.37025   0.39438   0.40324   0.41103
 Alpha virt. eigenvalues --    0.43029   0.43538   0.44761   0.45811   0.47345
 Alpha virt. eigenvalues --    0.47850   0.48129   0.49403   0.51370   0.54110
 Alpha virt. eigenvalues --    0.55551   0.56907   0.57488   0.58497   0.63925
 Alpha virt. eigenvalues --    0.65261   0.65572   0.66152   0.67062   0.68186
 Alpha virt. eigenvalues --    0.70827   0.73640   0.74599   0.76591   0.77468
 Alpha virt. eigenvalues --    0.78855   0.80093   0.84800   0.85305   0.87142
 Alpha virt. eigenvalues --    0.87719   0.89295   0.90311   0.91311   0.91480
 Alpha virt. eigenvalues --    0.92573   0.94144   0.95648   0.96737   0.97281
 Alpha virt. eigenvalues --    0.97818   0.99257   1.01018   1.01319   1.01792
 Alpha virt. eigenvalues --    1.03736   1.04496   1.05203   1.06038   1.07436
 Alpha virt. eigenvalues --    1.08090   1.08466   1.09674   1.10428   1.12917
 Alpha virt. eigenvalues --    1.14027   1.14967   1.15595   1.18825   1.19844
 Alpha virt. eigenvalues --    1.22237   1.24023   1.24827   1.25983   1.26404
 Alpha virt. eigenvalues --    1.28622   1.30651   1.32830   1.33679   1.35565
 Alpha virt. eigenvalues --    1.38347   1.38982   1.40711   1.42944   1.44445
 Alpha virt. eigenvalues --    1.45512   1.46803   1.48402   1.50422   1.52008
 Alpha virt. eigenvalues --    1.55158   1.58115   1.62545   1.63233   1.64483
 Alpha virt. eigenvalues --    1.66132   1.68434   1.70974   1.72178   1.73278
 Alpha virt. eigenvalues --    1.75583   1.76205   1.81510   1.83347   1.84825
 Alpha virt. eigenvalues --    1.86417   1.88765   1.92528   1.94802   1.95318
 Alpha virt. eigenvalues --    1.97026   1.98026   1.98848   1.99201   2.02443
 Alpha virt. eigenvalues --    2.04821   2.07767   2.09413   2.10489   2.11985
 Alpha virt. eigenvalues --    2.15985   2.28148   2.31266   2.36957   2.43214
 Alpha virt. eigenvalues --    2.45633   2.48499   2.66023   2.67422   2.68849
 Alpha virt. eigenvalues --    2.73847   2.85686   2.92189   2.92818   2.97731
 Alpha virt. eigenvalues --    3.22410   3.22889   3.26643   3.28370   3.28657
 Alpha virt. eigenvalues --    3.31342   3.33899   3.34645   3.58411   3.59813
 Alpha virt. eigenvalues --    3.61442   3.69994   3.73286   3.74504   3.75597
 Alpha virt. eigenvalues --    3.77608   3.77859   3.83175   3.84047   3.84476
 Alpha virt. eigenvalues --    3.89823   3.96113   4.02537   4.03182   4.05071
 Alpha virt. eigenvalues --    4.05797   4.10241   4.17853   4.19763   4.20342
 Alpha virt. eigenvalues --    4.21329   4.23553   4.32181   4.33580   4.35751
 Alpha virt. eigenvalues --    4.36933   4.37490   4.39718   4.42952   4.44401
 Alpha virt. eigenvalues --    4.46067   4.48675   4.50351   4.52470   4.52908
 Alpha virt. eigenvalues --    4.54251   4.56687   4.57415   4.60542   4.64369
 Alpha virt. eigenvalues --    4.69025   4.75967   4.79348   4.79770   4.83033
 Alpha virt. eigenvalues --    4.84195   4.89968   4.90766   4.96486   5.10276
 Alpha virt. eigenvalues --    5.15061   5.15504   5.16144   5.17216   5.22860
 Alpha virt. eigenvalues --    5.24577   5.26040   5.26426   5.28811   5.30927
 Alpha virt. eigenvalues --    5.32268   5.38780   5.40760   5.46218   5.47489
 Alpha virt. eigenvalues --    5.52749   5.54960   5.59868   5.60787   5.65291
 Alpha virt. eigenvalues --    6.06336   6.07187   6.08771   6.11793   6.11937
 Alpha virt. eigenvalues --    6.13581   6.20515   6.20705   6.78314   6.79497
 Alpha virt. eigenvalues --    6.80531   6.94961   7.61177   7.61751   7.67176
 Alpha virt. eigenvalues --    8.03455   8.05688   8.11243  10.39682  16.82548
 Alpha virt. eigenvalues --   52.77828
          Condensed to atoms (all electrons):
 Mulliken charges:
               1
     1  C   -1.914859
     2  H    0.381553
     3  H    0.547760
     4  H    0.490898
     5  H    0.474225
     6  C    0.007981
     7  H    0.005238
     8  H    0.001269
     9  H    0.006148
    10  H   -0.000212
 Sum of Mulliken charges =   0.00000
 Mulliken charges with hydrogens summed into heavy atoms:
               1
     1  C   -0.020424
     6  C    0.020424
 Electronic spatial extent (au):  <R**2>=             36.5420
 Charge=             -0.0000 electrons
 Dipole moment (field-independent basis, Debye):
    X=             -0.0001    Y=             -0.0000    Z=             -0.0001  Tot=              0.0001

 Test job not archived.
 1\1\GINC-CHIMERA-NODE40\SP\RM05\Gen\C2H8\CONNORNM\05-Dec-2018\0\\#T M0
 5/Gen test Massage Symmetry=None SCF=(tight,maxcyc=60)\\M05 opt\\0,1\C
 ,0,0.,0.,0.\H,0,0.61029983,0.,-0.9238615\H,0,0.23923093,-0.89905661,0.
 60037633\H,0,0.22488813,0.90898111,0.59090153\H,0,-1.07441889,-0.00992
 451,-0.26741636\C,0,0.,0.,3.35866956\H,0,0.23043155,-0.95810691,2.8537
 7512\H,0,0.17666761,-0.10435772,4.44673389\H,0,0.6530346,0.79710165,2.
 95350203\H,0,-1.06013377,0.26536299,3.18066721\\Version=AS64L-G09RevD.
 01\HF=-40.9122485\RMSD=5.296e-09\Dipole=-0.0000468,-0.0000007,-0.00002
 09\Quadrupole=-0.0009826,0.0005119,0.0004707,-0.0001819,-0.0002363,-0.
 0000204\PG=Unknown\\@


 GOD DOES NOT PLAY WITH DICE.
               -- A. EINSTEIN
 Job cpu time:       0 days  0 hours 12 minutes 37.4 seconds.
 File lengths (MBytes):  RWF=     41 Int=      0 D2E=      0 Chk=      4 Scr=      1
 Normal termination of Gaussian 09 at Wed Dec  5 21:54:32 2018.
