 Entering Gaussian System, Link 0=/data/szalewicgrp/connornm/opt/Gaussian/g09-M05-par/g09/g09
 AtFile(1): aug-cc-pVTZ.gbs
 Initial command:
 /data/szalewicgrp/connornm/opt/Gaussian/g09-M05-par/g09/l1.exe "/scratch/local/Gau-29836.inp" -scrdir="/scratch/local/"
 Entering Link 1 = /data/szalewicgrp/connornm/opt/Gaussian/g09-M05-par/g09/l1.exe PID=     29837.
  
 Copyright (c) 1988,1990,1992,1993,1995,1998,2003,2009,2013,
            Gaussian, Inc.  All Rights Reserved.
  
 This is part of the Gaussian(R) 09 program.  It is based on
 the Gaussian(R) 03 system (copyright 2003, Gaussian, Inc.),
 the Gaussian(R) 98 system (copyright 1998, Gaussian, Inc.),
 the Gaussian(R) 94 system (copyright 1995, Gaussian, Inc.),
 the Gaussian 92(TM) system (copyright 1992, Gaussian, Inc.),
 the Gaussian 90(TM) system (copyright 1990, Gaussian, Inc.),
 the Gaussian 88(TM) system (copyright 1988, Gaussian, Inc.),
 the Gaussian 86(TM) system (copyright 1986, Carnegie Mellon
 University), and the Gaussian 82(TM) system (copyright 1983,
 Carnegie Mellon University). Gaussian is a federally registered
 trademark of Gaussian, Inc.
  
 This software contains proprietary and confidential information,
 including trade secrets, belonging to Gaussian, Inc.
  
 This software is provided under written license and may be
 used, copied, transmitted, or stored only in accord with that
 written license.
  
 The following legend is applicable only to US Government
 contracts under FAR:
  
                    RESTRICTED RIGHTS LEGEND
  
 Use, reproduction and disclosure by the US Government is
 subject to restrictions as set forth in subparagraphs (a)
 and (c) of the Commercial Computer Software - Restricted
 Rights clause in FAR 52.227-19.
  
 Gaussian, Inc.
 340 Quinnipiac St., Bldg. 40, Wallingford CT 06492
  
  
 ---------------------------------------------------------------
 Warning -- This program may not be used in any manner that
 competes with the business of Gaussian, Inc. or will provide
 assistance to any competitor of Gaussian, Inc.  The licensee
 of this program is prohibited from giving any competitor of
 Gaussian, Inc. access to this program.  By using this program,
 the user acknowledges that Gaussian, Inc. is engaged in the
 business of creating and licensing software in the field of
 computational chemistry and represents and warrants to the
 licensee that it is not a competitor of Gaussian, Inc. and that
 it will not use this program in any manner prohibited above.
 ---------------------------------------------------------------
  

 Cite this work as:
 Gaussian 09, Revision D.01,
 M. J. Frisch, G. W. Trucks, H. B. Schlegel, G. E. Scuseria, 
 M. A. Robb, J. R. Cheeseman, G. Scalmani, V. Barone, B. Mennucci, 
 G. A. Petersson, H. Nakatsuji, M. Caricato, X. Li, H. P. Hratchian, 
 A. F. Izmaylov, J. Bloino, G. Zheng, J. L. Sonnenberg, M. Hada, 
 M. Ehara, K. Toyota, R. Fukuda, J. Hasegawa, M. Ishida, T. Nakajima, 
 Y. Honda, O. Kitao, H. Nakai, T. Vreven, J. A. Montgomery, Jr., 
 J. E. Peralta, F. Ogliaro, M. Bearpark, J. J. Heyd, E. Brothers, 
 K. N. Kudin, V. N. Staroverov, T. Keith, R. Kobayashi, J. Normand, 
 K. Raghavachari, A. Rendell, J. C. Burant, S. S. Iyengar, J. Tomasi, 
 M. Cossi, N. Rega, J. M. Millam, M. Klene, J. E. Knox, J. B. Cross, 
 V. Bakken, C. Adamo, J. Jaramillo, R. Gomperts, R. E. Stratmann, 
 O. Yazyev, A. J. Austin, R. Cammi, C. Pomelli, J. W. Ochterski, 
 R. L. Martin, K. Morokuma, V. G. Zakrzewski, G. A. Voth, 
 P. Salvador, J. J. Dannenberg, S. Dapprich, A. D. Daniels, 
 O. Farkas, J. B. Foresman, J. V. Ortiz, J. Cioslowski, 
 and D. J. Fox, Gaussian, Inc., Wallingford CT, 2013.
 
 ******************************************
 Gaussian 09:  AS64L-G09RevD.01 24-Apr-2013
                 6-Dec-2018 
 ******************************************
 %Chk=CH400039
 %Mem=2GB
 %NProcShared=16
 Will use up to   16 processors via shared memory.
 -----------------------------------------------------------
 #T M05/Gen test Massage Symmetry=None SCF=(tight,maxcyc=60)
 -----------------------------------------------------------
 -------
 M05 opt
 -------
 Symbolic Z-matrix:
 Charge =  0 Multiplicity = 1
 6                     0.        0.        0. 
 1                     0.92618   0.       -0.60678 
 1                    -0.21488  -1.02977   0.34551 
 1                     0.13307   0.6632    0.87661 
 1                    -0.84437   0.36657  -0.61534 
 6-Bq                  0.        0.        2.47871 
 1-Bq                 -0.24389   0.93796   3.01418 
 1-Bq                  0.02998  -0.83962   3.19991 
 1-Bq                 -0.77378  -0.1993    1.71221 
 1-Bq                  0.98769   0.10095   1.98855 
 
                    Distance matrix (angstroms):
                    1          2          3          4          5
     1  C    0.000000
     2  H    1.107243   0.000000
     3  H    1.107243   1.808119   0.000000
     4  H    1.107242   1.808119   1.808119   0.000000
     5  H    1.107243   1.808119   1.808119   1.808119   0.000000
     6  C    2.478714   3.221502   2.378478   1.739047   3.228083
     7  H    3.166159   3.919210   3.315818   2.187880   3.722973
     8  H    3.308369   3.999881   2.871188   2.768906   4.095798
     9  H    1.889477   2.882238   1.694087   1.504831   2.396392
    10  H    2.222621   2.598018   2.329008   1.510929   3.194878
                    6          7          8          9         10
     6  C    0.000000
     7  H    1.107243   0.000000
     8  H    1.107243   1.808119   0.000000
     9  H    1.107243   1.808119   1.808119   0.000000
    10  H    1.107243   1.808119   1.808119   1.808119   0.000000
 Symmetry turned off by external request.
 Rotational constants (GHZ):     76.6916054      9.0507905      9.0507905
   276 basis functions,   360 primitive gaussians,   310 cartesian basis functions
     5 alpha electrons        5 beta electrons
       nuclear repulsion energy        13.2261669829 Hartrees.
 IMHF & INEx in M05                  614413                  385587
 NAtoms=   10 NActive=   10 NUniq=   10 SFac= 1.00D+00 NAtFMM=   60 NAOKFM=F Big=F
 ExpMin= 2.53D-02 ExpMax= 8.24D+03 ExpMxC= 2.81D+02 IAcc=3 IRadAn=         5 AccDes= 0.00D+00
 Harris functional with IExCor= 1009 and IRadAn=       5 diagonalized for initial guess.
 HarFok:  IExCor= 1009 AccDes= 0.00D+00 IRadAn=         5 IDoV= 1 UseB2=F ITyADJ=14
 ICtDFT=  3500011 ScaDFX=  1.000000  1.000000  1.000000  1.000000
 FoFCou: FMM=F IPFlag=           0 FMFlag=      100000 FMFlg1=           0
         NFxFlg=           0 DoJE=T BraDBF=F KetDBF=T FulRan=T
         wScrn=  0.000000 ICntrl=     500 IOpCl=  0 I1Cent=   200000004 NGrid=           0
         NMat0=    1 NMatS0=      1 NMatT0=    0 NMatD0=    1 NMtDS0=    0 NMtDT0=    0
 Symmetry not used in FoFCou.
 SCF Done:  E(RM05) =  -40.9123594140     A.U. after    7 cycles
            NFock=  7  Conv=0.84D-08     -V/T= 2.0126

 **********************************************************************

            Population analysis using the SCF density.

 **********************************************************************

 Alpha  occ. eigenvalues --  -10.74533  -0.82770  -0.48757  -0.48754  -0.48752
 Alpha virt. eigenvalues --   -0.00120   0.02520   0.02638   0.02722   0.05100
 Alpha virt. eigenvalues --    0.05200   0.05729   0.06302   0.08014   0.09604
 Alpha virt. eigenvalues --    0.10592   0.10881   0.10959   0.11566   0.12197
 Alpha virt. eigenvalues --    0.12689   0.15531   0.16165   0.16828   0.20198
 Alpha virt. eigenvalues --    0.21941   0.22407   0.23046   0.24917   0.26609
 Alpha virt. eigenvalues --    0.27630   0.28107   0.28566   0.29032   0.29860
 Alpha virt. eigenvalues --    0.30867   0.31549   0.31780   0.32858   0.33407
 Alpha virt. eigenvalues --    0.33731   0.34281   0.35031   0.36500   0.36525
 Alpha virt. eigenvalues --    0.38368   0.40040   0.41715   0.43280   0.43664
 Alpha virt. eigenvalues --    0.44323   0.45317   0.46512   0.46933   0.48317
 Alpha virt. eigenvalues --    0.48688   0.51062   0.51667   0.53235   0.54457
 Alpha virt. eigenvalues --    0.55133   0.56194   0.57651   0.59854   0.61285
 Alpha virt. eigenvalues --    0.64425   0.66888   0.67998   0.69905   0.70634
 Alpha virt. eigenvalues --    0.71891   0.72361   0.75054   0.77410   0.78114
 Alpha virt. eigenvalues --    0.80104   0.81807   0.82891   0.84653   0.85741
 Alpha virt. eigenvalues --    0.89024   0.90728   0.91499   0.92578   0.94731
 Alpha virt. eigenvalues --    0.96098   0.97105   0.97543   0.98956   0.99707
 Alpha virt. eigenvalues --    1.00766   1.02237   1.03089   1.03528   1.04269
 Alpha virt. eigenvalues --    1.05232   1.07367   1.08077   1.09823   1.10436
 Alpha virt. eigenvalues --    1.11485   1.13463   1.13794   1.15929   1.16994
 Alpha virt. eigenvalues --    1.19487   1.21053   1.22780   1.24910   1.27382
 Alpha virt. eigenvalues --    1.27678   1.30221   1.32422   1.33288   1.34567
 Alpha virt. eigenvalues --    1.35975   1.36637   1.39159   1.41052   1.42888
 Alpha virt. eigenvalues --    1.44780   1.45853   1.48045   1.48513   1.50669
 Alpha virt. eigenvalues --    1.52145   1.55700   1.57698   1.59088   1.61170
 Alpha virt. eigenvalues --    1.62383   1.64616   1.67860   1.71286   1.71720
 Alpha virt. eigenvalues --    1.72868   1.75815   1.76869   1.77679   1.80182
 Alpha virt. eigenvalues --    1.81035   1.86060   1.87153   1.87898   1.92091
 Alpha virt. eigenvalues --    1.93137   1.95458   1.97103   1.97488   2.00771
 Alpha virt. eigenvalues --    2.01690   2.02352   2.03768   2.05445   2.08651
 Alpha virt. eigenvalues --    2.11948   2.12956   2.17346   2.19414   2.25573
 Alpha virt. eigenvalues --    2.27844   2.32914   2.37145   2.39097   2.45625
 Alpha virt. eigenvalues --    2.47773   2.58634   2.63781   2.66554   2.68849
 Alpha virt. eigenvalues --    2.87834   2.95997   3.01198   3.05785   3.19535
 Alpha virt. eigenvalues --    3.27250   3.32606   3.32711   3.36978   3.37520
 Alpha virt. eigenvalues --    3.42049   3.43195   3.58976   3.60280   3.61051
 Alpha virt. eigenvalues --    3.64219   3.65985   3.73802   3.75940   3.78266
 Alpha virt. eigenvalues --    3.80374   3.82120   3.84242   3.87703   3.91874
 Alpha virt. eigenvalues --    3.98093   3.98837   4.02913   4.06322   4.09911
 Alpha virt. eigenvalues --    4.14020   4.16337   4.19200   4.20623   4.28729
 Alpha virt. eigenvalues --    4.32372   4.33294   4.33999   4.35220   4.38416
 Alpha virt. eigenvalues --    4.39612   4.43114   4.44544   4.46422   4.48853
 Alpha virt. eigenvalues --    4.49203   4.52909   4.56326   4.57637   4.59146
 Alpha virt. eigenvalues --    4.61258   4.65733   4.69559   4.74527   4.80580
 Alpha virt. eigenvalues --    4.81080   4.82533   4.88647   4.95454   4.96615
 Alpha virt. eigenvalues --    4.98245   5.04493   5.11269   5.13321   5.17528
 Alpha virt. eigenvalues --    5.19717   5.22218   5.24366   5.26303   5.29589
 Alpha virt. eigenvalues --    5.31444   5.33140   5.37775   5.40100   5.43249
 Alpha virt. eigenvalues --    5.47274   5.50214   5.54390   5.56898   5.58635
 Alpha virt. eigenvalues --    5.64925   5.75941   5.81649   5.84638   5.91340
 Alpha virt. eigenvalues --    6.05015   6.12006   6.14145   6.17369   6.19408
 Alpha virt. eigenvalues --    6.24417   6.29022   6.37288   6.78127   6.83915
 Alpha virt. eigenvalues --    6.93102   7.08704   7.57275   7.60100   7.62682
 Alpha virt. eigenvalues --    8.04599   8.06633   8.22405  10.53205  17.81043
 Alpha virt. eigenvalues --   53.53978
          Condensed to atoms (all electrons):
 Mulliken charges:
               1
     1  C   -2.142638
     2  H    0.424949
     3  H    0.479060
     4  H    0.779722
     5  H    0.457597
     6  C   -0.056101
     7  H   -0.002412
     8  H   -0.004329
     9  H    0.069892
    10  H   -0.005740
 Sum of Mulliken charges =   0.00000
 Mulliken charges with hydrogens summed into heavy atoms:
               1
     1  C   -0.001310
     6  C    0.001310
 Electronic spatial extent (au):  <R**2>=             36.5412
 Charge=              0.0000 electrons
 Dipole moment (field-independent basis, Debye):
    X=             -0.0000    Y=              0.0001    Z=              0.0001  Tot=              0.0001

 Test job not archived.
 1\1\GINC-CHIMERA-NODE53\SP\RM05\Gen\C2H8\CONNORNM\06-Dec-2018\0\\#T M0
 5/Gen test Massage Symmetry=None SCF=(tight,maxcyc=60)\\M05 opt\\0,1\C
 ,0,0.,0.,0.\H,0,0.92617759,0.,-0.60677923\H,0,-0.21487509,-1.02977479,
 0.34551199\H,0,0.13306957,0.66320085,0.87660885\H,0,-0.84437208,0.3665
 7394,-0.61534161\C,0,0.,0.,2.47871427\H,0,-0.24388608,0.93796438,3.014
 18449\H,0,0.02997765,-0.83961801,3.19991389\H,0,-0.7737814,-0.19930041
 ,1.71221075\H,0,0.98768983,0.10095404,1.98854793\\Version=AS64L-G09Rev
 D.01\HF=-40.9123594\RMSD=8.364e-09\Dipole=-0.0000149,0.0000417,0.00003
 27\Quadrupole=0.000002,-0.0000641,0.000062,-0.0002958,0.0001443,-0.000
 155\PG=Unknown\\@


 HOW IS IT THAT THE SKY FEEDS THE STARS?

                           -- LUCRETIUS
 Job cpu time:       0 days  0 hours 13 minutes 32.7 seconds.
 File lengths (MBytes):  RWF=     41 Int=      0 D2E=      0 Chk=      4 Scr=      1
 Normal termination of Gaussian 09 at Thu Dec  6 13:20:46 2018.
