 Entering Gaussian System, Link 0=/data/szalewicgrp/connornm/opt/Gaussian/g09-M05-par/g09/g09
 AtFile(1): aug-cc-pVTZ.gbs
 Initial command:
 /data/szalewicgrp/connornm/opt/Gaussian/g09-M05-par/g09/l1.exe "/scratch/local/Gau-48804.inp" -scrdir="/scratch/local/"
 Entering Link 1 = /data/szalewicgrp/connornm/opt/Gaussian/g09-M05-par/g09/l1.exe PID=     48805.
  
 Copyright (c) 1988,1990,1992,1993,1995,1998,2003,2009,2013,
            Gaussian, Inc.  All Rights Reserved.
  
 This is part of the Gaussian(R) 09 program.  It is based on
 the Gaussian(R) 03 system (copyright 2003, Gaussian, Inc.),
 the Gaussian(R) 98 system (copyright 1998, Gaussian, Inc.),
 the Gaussian(R) 94 system (copyright 1995, Gaussian, Inc.),
 the Gaussian 92(TM) system (copyright 1992, Gaussian, Inc.),
 the Gaussian 90(TM) system (copyright 1990, Gaussian, Inc.),
 the Gaussian 88(TM) system (copyright 1988, Gaussian, Inc.),
 the Gaussian 86(TM) system (copyright 1986, Carnegie Mellon
 University), and the Gaussian 82(TM) system (copyright 1983,
 Carnegie Mellon University). Gaussian is a federally registered
 trademark of Gaussian, Inc.
  
 This software contains proprietary and confidential information,
 including trade secrets, belonging to Gaussian, Inc.
  
 This software is provided under written license and may be
 used, copied, transmitted, or stored only in accord with that
 written license.
  
 The following legend is applicable only to US Government
 contracts under FAR:
  
                    RESTRICTED RIGHTS LEGEND
  
 Use, reproduction and disclosure by the US Government is
 subject to restrictions as set forth in subparagraphs (a)
 and (c) of the Commercial Computer Software - Restricted
 Rights clause in FAR 52.227-19.
  
 Gaussian, Inc.
 340 Quinnipiac St., Bldg. 40, Wallingford CT 06492
  
  
 ---------------------------------------------------------------
 Warning -- This program may not be used in any manner that
 competes with the business of Gaussian, Inc. or will provide
 assistance to any competitor of Gaussian, Inc.  The licensee
 of this program is prohibited from giving any competitor of
 Gaussian, Inc. access to this program.  By using this program,
 the user acknowledges that Gaussian, Inc. is engaged in the
 business of creating and licensing software in the field of
 computational chemistry and represents and warrants to the
 licensee that it is not a competitor of Gaussian, Inc. and that
 it will not use this program in any manner prohibited above.
 ---------------------------------------------------------------
  

 Cite this work as:
 Gaussian 09, Revision D.01,
 M. J. Frisch, G. W. Trucks, H. B. Schlegel, G. E. Scuseria, 
 M. A. Robb, J. R. Cheeseman, G. Scalmani, V. Barone, B. Mennucci, 
 G. A. Petersson, H. Nakatsuji, M. Caricato, X. Li, H. P. Hratchian, 
 A. F. Izmaylov, J. Bloino, G. Zheng, J. L. Sonnenberg, M. Hada, 
 M. Ehara, K. Toyota, R. Fukuda, J. Hasegawa, M. Ishida, T. Nakajima, 
 Y. Honda, O. Kitao, H. Nakai, T. Vreven, J. A. Montgomery, Jr., 
 J. E. Peralta, F. Ogliaro, M. Bearpark, J. J. Heyd, E. Brothers, 
 K. N. Kudin, V. N. Staroverov, T. Keith, R. Kobayashi, J. Normand, 
 K. Raghavachari, A. Rendell, J. C. Burant, S. S. Iyengar, J. Tomasi, 
 M. Cossi, N. Rega, J. M. Millam, M. Klene, J. E. Knox, J. B. Cross, 
 V. Bakken, C. Adamo, J. Jaramillo, R. Gomperts, R. E. Stratmann, 
 O. Yazyev, A. J. Austin, R. Cammi, C. Pomelli, J. W. Ochterski, 
 R. L. Martin, K. Morokuma, V. G. Zakrzewski, G. A. Voth, 
 P. Salvador, J. J. Dannenberg, S. Dapprich, A. D. Daniels, 
 O. Farkas, J. B. Foresman, J. V. Ortiz, J. Cioslowski, 
 and D. J. Fox, Gaussian, Inc., Wallingford CT, 2013.
 
 ******************************************
 Gaussian 09:  AS64L-G09RevD.01 24-Apr-2013
                 5-Dec-2018 
 ******************************************
 %Chk=CH400202
 %Mem=2GB
 %NProcShared=16
 Will use up to   16 processors via shared memory.
 -----------------------------------------------------------
 #T M05/Gen test Massage Symmetry=None SCF=(tight,maxcyc=60)
 -----------------------------------------------------------
 -------
 M05 opt
 -------
 Symbolic Z-matrix:
 Charge =  0 Multiplicity = 1
 6                     0.        0.        0. 
 1                     0.99666   0.       -0.48235 
 1                    -0.73455  -0.48662  -0.67054 
 1                     0.05253  -0.55651   0.95578 
 1                    -0.31464   1.04314   0.1971 
 6-Bq                  0.        0.        2.86365 
 1-Bq                 -0.34559  -0.24485   3.88669 
 1-Bq                  0.23665  -0.93527   2.32029 
 1-Bq                 -0.79796   0.54757   2.32569 
 1-Bq                  0.9069    0.63255   2.92194 
 
                    Distance matrix (angstroms):
                    1          2          3          4          5
     1  C    0.000000
     2  H    1.107242   0.000000
     3  H    1.107242   1.808119   0.000000
     4  H    1.107243   1.808119   1.808119   0.000000
     5  H    1.107243   1.808119   1.808119   1.808119   0.000000
     6  C    2.863649   3.491277   3.642369   1.988072   2.880556
     7  H    3.909694   4.577119   4.580178   2.974194   3.908054
     8  H    2.512860   3.050752   3.176405   1.428016   2.953970
     9  H    2.519008   3.377212   3.170324   1.954225   2.238314
    10  H    3.124152   3.463719   4.105217   2.451450   3.014212
                    6          7          8          9         10
     6  C    0.000000
     7  H    1.107242   0.000000
     8  H    1.107243   1.808119   0.000000
     9  H    1.107243   1.808119   1.808119   0.000000
    10  H    1.107242   1.808119   1.808119   1.808119   0.000000
 Symmetry turned off by external request.
 Rotational constants (GHZ):     76.6916057      6.9879014      6.9879014
   276 basis functions,   360 primitive gaussians,   310 cartesian basis functions
     5 alpha electrons        5 beta electrons
       nuclear repulsion energy        13.2261670092 Hartrees.
 IMHF & INEx in M05                  614413                  385587
 NAtoms=   10 NActive=   10 NUniq=   10 SFac= 1.00D+00 NAtFMM=   60 NAOKFM=F Big=F
 ExpMin= 2.53D-02 ExpMax= 8.24D+03 ExpMxC= 2.81D+02 IAcc=3 IRadAn=         5 AccDes= 0.00D+00
 Harris functional with IExCor= 1009 and IRadAn=       5 diagonalized for initial guess.
 HarFok:  IExCor= 1009 AccDes= 0.00D+00 IRadAn=         5 IDoV= 1 UseB2=F ITyADJ=14
 ICtDFT=  3500011 ScaDFX=  1.000000  1.000000  1.000000  1.000000
 FoFCou: FMM=F IPFlag=           0 FMFlag=      100000 FMFlg1=           0
         NFxFlg=           0 DoJE=T BraDBF=F KetDBF=T FulRan=T
         wScrn=  0.000000 ICntrl=     500 IOpCl=  0 I1Cent=   200000004 NGrid=           0
         NMat0=    1 NMatS0=      1 NMatT0=    0 NMatD0=    1 NMtDS0=    0 NMtDT0=    0
 Symmetry not used in FoFCou.
 SCF Done:  E(RM05) =  -40.9123163872     A.U. after    7 cycles
            NFock=  7  Conv=0.64D-08     -V/T= 2.0126

 **********************************************************************

            Population analysis using the SCF density.

 **********************************************************************

 Alpha  occ. eigenvalues --  -10.74528  -0.82769  -0.48755  -0.48752  -0.48752
 Alpha virt. eigenvalues --   -0.00133   0.02425   0.02707   0.02837   0.04977
 Alpha virt. eigenvalues --    0.05055   0.05342   0.07807   0.07870   0.08665
 Alpha virt. eigenvalues --    0.10047   0.10421   0.10786   0.11186   0.12449
 Alpha virt. eigenvalues --    0.14263   0.15421   0.16253   0.17655   0.18075
 Alpha virt. eigenvalues --    0.20821   0.22211   0.23760   0.26292   0.26435
 Alpha virt. eigenvalues --    0.27247   0.27478   0.28185   0.28726   0.28862
 Alpha virt. eigenvalues --    0.29855   0.30565   0.30762   0.31656   0.33375
 Alpha virt. eigenvalues --    0.33820   0.34564   0.35596   0.36149   0.36481
 Alpha virt. eigenvalues --    0.37853   0.39369   0.40094   0.41485   0.42598
 Alpha virt. eigenvalues --    0.43756   0.44376   0.45215   0.46265   0.48335
 Alpha virt. eigenvalues --    0.49098   0.51036   0.51269   0.52374   0.54304
 Alpha virt. eigenvalues --    0.55030   0.56426   0.59261   0.60394   0.62010
 Alpha virt. eigenvalues --    0.63361   0.64655   0.65506   0.70301   0.71045
 Alpha virt. eigenvalues --    0.72226   0.73800   0.74375   0.76513   0.78616
 Alpha virt. eigenvalues --    0.80974   0.82178   0.84789   0.85932   0.86737
 Alpha virt. eigenvalues --    0.88339   0.90061   0.91032   0.91894   0.93661
 Alpha virt. eigenvalues --    0.95409   0.96915   0.98166   0.98381   0.99761
 Alpha virt. eigenvalues --    1.00156   1.00837   1.01593   1.03498   1.04556
 Alpha virt. eigenvalues --    1.04811   1.05899   1.06563   1.08207   1.09594
 Alpha virt. eigenvalues --    1.09908   1.10503   1.11572   1.13513   1.15678
 Alpha virt. eigenvalues --    1.16962   1.19310   1.20620   1.21388   1.22295
 Alpha virt. eigenvalues --    1.22679   1.24606   1.26517   1.29008   1.30928
 Alpha virt. eigenvalues --    1.32733   1.34770   1.35450   1.38222   1.38580
 Alpha virt. eigenvalues --    1.41055   1.43734   1.44127   1.47120   1.48402
 Alpha virt. eigenvalues --    1.49426   1.51930   1.53723   1.55504   1.59505
 Alpha virt. eigenvalues --    1.61786   1.63190   1.64600   1.67917   1.68709
 Alpha virt. eigenvalues --    1.70375   1.72932   1.75481   1.76777   1.78687
 Alpha virt. eigenvalues --    1.79551   1.81951   1.83091   1.86130   1.87530
 Alpha virt. eigenvalues --    1.91733   1.94194   1.95546   1.97878   1.98119
 Alpha virt. eigenvalues --    2.00371   2.01381   2.03689   2.05276   2.06692
 Alpha virt. eigenvalues --    2.07628   2.11055   2.14646   2.18777   2.21309
 Alpha virt. eigenvalues --    2.27858   2.33915   2.36857   2.39739   2.44951
 Alpha virt. eigenvalues --    2.49813   2.61659   2.64619   2.64862   2.73739
 Alpha virt. eigenvalues --    2.84383   2.86423   2.98277   3.01243   3.15439
 Alpha virt. eigenvalues --    3.23772   3.28783   3.29980   3.31176   3.33076
 Alpha virt. eigenvalues --    3.35224   3.41758   3.51918   3.60745   3.62025
 Alpha virt. eigenvalues --    3.68381   3.71934   3.73764   3.75267   3.75994
 Alpha virt. eigenvalues --    3.79803   3.82801   3.84170   3.87522   3.89844
 Alpha virt. eigenvalues --    3.91768   3.95778   3.98119   4.03344   4.07015
 Alpha virt. eigenvalues --    4.12689   4.14485   4.16058   4.20580   4.21101
 Alpha virt. eigenvalues --    4.24130   4.26145   4.28333   4.31120   4.35813
 Alpha virt. eigenvalues --    4.37239   4.43415   4.44425   4.45842   4.46825
 Alpha virt. eigenvalues --    4.48695   4.51077   4.53375   4.54342   4.55708
 Alpha virt. eigenvalues --    4.58547   4.60580   4.61951   4.66866   4.71497
 Alpha virt. eigenvalues --    4.75778   4.80769   4.84582   4.86853   4.88899
 Alpha virt. eigenvalues --    4.92199   4.96749   5.00302   5.05510   5.12959
 Alpha virt. eigenvalues --    5.15119   5.16757   5.20201   5.22588   5.23661
 Alpha virt. eigenvalues --    5.25839   5.29755   5.32229   5.34862   5.36241
 Alpha virt. eigenvalues --    5.40610   5.44997   5.46460   5.50355   5.51456
 Alpha virt. eigenvalues --    5.59862   5.62660   5.67534   5.78791   5.87389
 Alpha virt. eigenvalues --    6.07310   6.08284   6.10647   6.12883   6.14139
 Alpha virt. eigenvalues --    6.16085   6.18343   6.43891   6.78260   6.79514
 Alpha virt. eigenvalues --    6.88881   7.01784   7.56007   7.59232   7.63495
 Alpha virt. eigenvalues --    8.02575   8.05937   8.10639  10.38079  17.55808
 Alpha virt. eigenvalues --   52.84299
          Condensed to atoms (all electrons):
 Mulliken charges:
               1
     1  C   -2.081323
     2  H    0.410046
     3  H    0.390170
     4  H    0.843234
     5  H    0.462684
     6  C   -0.007311
     7  H    0.006921
     8  H   -0.054042
     9  H    0.043404
    10  H   -0.013781
 Sum of Mulliken charges =   0.00000
 Mulliken charges with hydrogens summed into heavy atoms:
               1
     1  C    0.024810
     6  C   -0.024810
 Electronic spatial extent (au):  <R**2>=             36.5414
 Charge=              0.0000 electrons
 Dipole moment (field-independent basis, Debye):
    X=              0.0000    Y=             -0.0001    Z=              0.0002  Tot=              0.0002

 Test job not archived.
 1\1\GINC-CHIMERA-NODE15\SP\RM05\Gen\C2H8\CONNORNM\05-Dec-2018\0\\#T M0
 5/Gen test Massage Symmetry=None SCF=(tight,maxcyc=60)\\M05 opt\\0,1\C
 ,0,0.,0.,0.\H,0,0.99665825,0.,-0.48234664\H,0,-0.7345487,-0.48662322,-
 0.67053859\H,0,0.0525314,-0.55651484,0.95578117\H,0,-0.31464095,1.0431
 3806,0.19710407\C,0,0.,0.,2.86364946\H,0,-0.34558856,-0.24485207,3.886
 68512\H,0,0.23665345,-0.93527349,2.3202853\H,0,-0.79796373,0.5475731,2
 .32568706\H,0,0.90689884,0.63255246,2.92194034\\Version=AS64L-G09RevD.
 01\HF=-40.9123164\RMSD=6.351e-09\Dipole=0.0000055,-0.0000438,0.000075\
 Quadrupole=-0.0000904,0.0001884,-0.0000979,0.0003504,-0.0000327,0.0000
 995\PG=Unknown\\@


 THE UNDERLYING PHYSICAL LAWS NECESSARY FOR THE 
 MATHEMATICAL THEORY OF A LARGE PART OF PHYSICS AND THE
 WHOLE OF CHEMISTRY ARE THUS COMPLETELY KNOWN, AND THE
 DIFFICULTY IS ONLY THAT THE EXACT APPLICATION OF THESE
 LAWS LEADS TO EQUATIONS MUCH TOO COMPLICATED 
 TO BE SOLUBLE.

                                        -- P. A. M. DIRAC, 1929
 Job cpu time:       0 days  0 hours 13 minutes 17.3 seconds.
 File lengths (MBytes):  RWF=     41 Int=      0 D2E=      0 Chk=      4 Scr=      1
 Normal termination of Gaussian 09 at Wed Dec  5 21:43:13 2018.
