 Entering Gaussian System, Link 0=/data/szalewicgrp/connornm/opt/Gaussian/g09-M05-par/g09/g09
 AtFile(1): aug-cc-pVTZ.gbs
 Initial command:
 /data/szalewicgrp/connornm/opt/Gaussian/g09-M05-par/g09/l1.exe "/scratch/local/Gau-48861.inp" -scrdir="/scratch/local/"
 Entering Link 1 = /data/szalewicgrp/connornm/opt/Gaussian/g09-M05-par/g09/l1.exe PID=     48863.
  
 Copyright (c) 1988,1990,1992,1993,1995,1998,2003,2009,2013,
            Gaussian, Inc.  All Rights Reserved.
  
 This is part of the Gaussian(R) 09 program.  It is based on
 the Gaussian(R) 03 system (copyright 2003, Gaussian, Inc.),
 the Gaussian(R) 98 system (copyright 1998, Gaussian, Inc.),
 the Gaussian(R) 94 system (copyright 1995, Gaussian, Inc.),
 the Gaussian 92(TM) system (copyright 1992, Gaussian, Inc.),
 the Gaussian 90(TM) system (copyright 1990, Gaussian, Inc.),
 the Gaussian 88(TM) system (copyright 1988, Gaussian, Inc.),
 the Gaussian 86(TM) system (copyright 1986, Carnegie Mellon
 University), and the Gaussian 82(TM) system (copyright 1983,
 Carnegie Mellon University). Gaussian is a federally registered
 trademark of Gaussian, Inc.
  
 This software contains proprietary and confidential information,
 including trade secrets, belonging to Gaussian, Inc.
  
 This software is provided under written license and may be
 used, copied, transmitted, or stored only in accord with that
 written license.
  
 The following legend is applicable only to US Government
 contracts under FAR:
  
                    RESTRICTED RIGHTS LEGEND
  
 Use, reproduction and disclosure by the US Government is
 subject to restrictions as set forth in subparagraphs (a)
 and (c) of the Commercial Computer Software - Restricted
 Rights clause in FAR 52.227-19.
  
 Gaussian, Inc.
 340 Quinnipiac St., Bldg. 40, Wallingford CT 06492
  
  
 ---------------------------------------------------------------
 Warning -- This program may not be used in any manner that
 competes with the business of Gaussian, Inc. or will provide
 assistance to any competitor of Gaussian, Inc.  The licensee
 of this program is prohibited from giving any competitor of
 Gaussian, Inc. access to this program.  By using this program,
 the user acknowledges that Gaussian, Inc. is engaged in the
 business of creating and licensing software in the field of
 computational chemistry and represents and warrants to the
 licensee that it is not a competitor of Gaussian, Inc. and that
 it will not use this program in any manner prohibited above.
 ---------------------------------------------------------------
  

 Cite this work as:
 Gaussian 09, Revision D.01,
 M. J. Frisch, G. W. Trucks, H. B. Schlegel, G. E. Scuseria, 
 M. A. Robb, J. R. Cheeseman, G. Scalmani, V. Barone, B. Mennucci, 
 G. A. Petersson, H. Nakatsuji, M. Caricato, X. Li, H. P. Hratchian, 
 A. F. Izmaylov, J. Bloino, G. Zheng, J. L. Sonnenberg, M. Hada, 
 M. Ehara, K. Toyota, R. Fukuda, J. Hasegawa, M. Ishida, T. Nakajima, 
 Y. Honda, O. Kitao, H. Nakai, T. Vreven, J. A. Montgomery, Jr., 
 J. E. Peralta, F. Ogliaro, M. Bearpark, J. J. Heyd, E. Brothers, 
 K. N. Kudin, V. N. Staroverov, T. Keith, R. Kobayashi, J. Normand, 
 K. Raghavachari, A. Rendell, J. C. Burant, S. S. Iyengar, J. Tomasi, 
 M. Cossi, N. Rega, J. M. Millam, M. Klene, J. E. Knox, J. B. Cross, 
 V. Bakken, C. Adamo, J. Jaramillo, R. Gomperts, R. E. Stratmann, 
 O. Yazyev, A. J. Austin, R. Cammi, C. Pomelli, J. W. Ochterski, 
 R. L. Martin, K. Morokuma, V. G. Zakrzewski, G. A. Voth, 
 P. Salvador, J. J. Dannenberg, S. Dapprich, A. D. Daniels, 
 O. Farkas, J. B. Foresman, J. V. Ortiz, J. Cioslowski, 
 and D. J. Fox, Gaussian, Inc., Wallingford CT, 2013.
 
 ******************************************
 Gaussian 09:  AS64L-G09RevD.01 24-Apr-2013
                 5-Dec-2018 
 ******************************************
 %Chk=CH400290
 %Mem=2GB
 %NProcShared=16
 Will use up to   16 processors via shared memory.
 -----------------------------------------------------------
 #T M05/Gen test Massage Symmetry=None SCF=(tight,maxcyc=60)
 -----------------------------------------------------------
 -------
 M05 opt
 -------
 Symbolic Z-matrix:
 Charge =  0 Multiplicity = 1
 6                     0.        0.        0. 
 1                     0.92018   0.        0.61583 
 1                    -0.4106    1.02708  -0.05007 
 1                     0.23992  -0.3518   -1.02209 
 1                    -0.7495   -0.67528   0.45632 
 6-Bq                  0.        0.        3.76321 
 1-Bq                  0.28556  -1.03066   4.04988 
 1-Bq                  0.87295   0.51408   3.31637 
 1-Bq                 -0.82421  -0.03724   3.02478 
 1-Bq                 -0.3343    0.55382   4.66183 
 
                    Distance matrix (angstroms):
                    1          2          3          4          5
     1  C    0.000000
     2  H    1.107242   0.000000
     3  H    1.107243   1.808119   0.000000
     4  H    1.107243   1.808119   1.808119   0.000000
     5  H    1.107243   1.808119   1.808119   1.808119   0.000000
     6  C    3.763214   3.279138   3.970465   4.804209   3.457352
     7  H    4.188712   3.641109   4.639878   5.117397   3.756498
     8  H    3.467650   2.749434   3.639166   4.469075   3.496679
     9  H    3.135283   2.974443   3.280018   4.196243   2.647575
    10  H    4.706501   4.272066   4.736222   5.784186   4.401067
                    6          7          8          9         10
     6  C    0.000000
     7  H    1.107243   0.000000
     8  H    1.107243   1.808119   0.000000
     9  H    1.107242   1.808119   1.808119   0.000000
    10  H    1.107243   1.808119   1.808119   1.808119   0.000000
 Symmetry turned off by external request.
 Rotational constants (GHZ):     76.6916054      4.2077889      4.2077889
   276 basis functions,   360 primitive gaussians,   310 cartesian basis functions
     5 alpha electrons        5 beta electrons
       nuclear repulsion energy        13.2261669877 Hartrees.
 IMHF & INEx in M05                  614413                  385587
 NAtoms=   10 NActive=   10 NUniq=   10 SFac= 1.00D+00 NAtFMM=   60 NAOKFM=F Big=F
 ExpMin= 2.53D-02 ExpMax= 8.24D+03 ExpMxC= 2.81D+02 IAcc=3 IRadAn=         5 AccDes= 0.00D+00
 Harris functional with IExCor= 1009 and IRadAn=       5 diagonalized for initial guess.
 HarFok:  IExCor= 1009 AccDes= 0.00D+00 IRadAn=         5 IDoV= 1 UseB2=F ITyADJ=14
 ICtDFT=  3500011 ScaDFX=  1.000000  1.000000  1.000000  1.000000
 FoFCou: FMM=F IPFlag=           0 FMFlag=      100000 FMFlg1=           0
         NFxFlg=           0 DoJE=T BraDBF=F KetDBF=T FulRan=T
         wScrn=  0.000000 ICntrl=     500 IOpCl=  0 I1Cent=   200000004 NGrid=           0
         NMat0=    1 NMatS0=      1 NMatT0=    0 NMatD0=    1 NMtDS0=    0 NMtDT0=    0
 Symmetry not used in FoFCou.
 SCF Done:  E(RM05) =  -44.9242780367     A.U. after   10 cycles
            NFock= 10  Conv=0.20D-08     -V/T= 2.0281

 **********************************************************************

            Population analysis using the SCF density.

 **********************************************************************

 Alpha  occ. eigenvalues --  -11.79332  -0.95365  -0.65713  -0.65713  -0.65712
 Alpha virt. eigenvalues --   -0.07443  -0.00621  -0.00584  -0.00565   0.01199
 Alpha virt. eigenvalues --    0.01615   0.01653   0.03370   0.04311   0.04411
 Alpha virt. eigenvalues --    0.05583   0.06671   0.07366   0.07738   0.08726
 Alpha virt. eigenvalues --    0.09462   0.09745   0.10912   0.12054   0.12433
 Alpha virt. eigenvalues --    0.16422   0.18420   0.19132   0.19526   0.20358
 Alpha virt. eigenvalues --    0.20560   0.21612   0.21891   0.22281   0.23025
 Alpha virt. eigenvalues --    0.25179   0.25665   0.26121   0.26554   0.27030
 Alpha virt. eigenvalues --    0.27568   0.28377   0.29363   0.30033   0.30392
 Alpha virt. eigenvalues --    0.33472   0.33608   0.35211   0.35544   0.36440
 Alpha virt. eigenvalues --    0.37427   0.38968   0.39424   0.40162   0.41725
 Alpha virt. eigenvalues --    0.42375   0.42915   0.45706   0.46947   0.47672
 Alpha virt. eigenvalues --    0.49988   0.50333   0.51842   0.54494   0.55012
 Alpha virt. eigenvalues --    0.56572   0.57487   0.59126   0.60886   0.62000
 Alpha virt. eigenvalues --    0.63001   0.63931   0.64938   0.65677   0.66612
 Alpha virt. eigenvalues --    0.68540   0.69966   0.71648   0.73773   0.74275
 Alpha virt. eigenvalues --    0.74566   0.77120   0.78769   0.80560   0.80790
 Alpha virt. eigenvalues --    0.81669   0.82680   0.83681   0.87900   0.89052
 Alpha virt. eigenvalues --    0.89979   0.92624   0.92850   0.93392   0.94647
 Alpha virt. eigenvalues --    0.95038   0.96026   0.97284   0.98487   1.00348
 Alpha virt. eigenvalues --    1.01968   1.03397   1.03554   1.04783   1.05439
 Alpha virt. eigenvalues --    1.06374   1.07854   1.09800   1.10415   1.12383
 Alpha virt. eigenvalues --    1.13092   1.14619   1.16039   1.17805   1.20875
 Alpha virt. eigenvalues --    1.22443   1.24102   1.24930   1.26916   1.29095
 Alpha virt. eigenvalues --    1.30163   1.31372   1.31901   1.34262   1.35335
 Alpha virt. eigenvalues --    1.35602   1.36592   1.37736   1.39665   1.40095
 Alpha virt. eigenvalues --    1.41347   1.43781   1.44586   1.45819   1.48917
 Alpha virt. eigenvalues --    1.51005   1.52391   1.53929   1.58682   1.60098
 Alpha virt. eigenvalues --    1.64149   1.64447   1.67602   1.71466   1.73269
 Alpha virt. eigenvalues --    1.78144   1.80508   1.81187   1.83306   1.86169
 Alpha virt. eigenvalues --    1.86735   1.87308   1.94322   1.95223   1.98334
 Alpha virt. eigenvalues --    2.00529   2.00892   2.03407   2.05907   2.08363
 Alpha virt. eigenvalues --    2.11277   2.19940   2.26877   2.29168   2.35361
 Alpha virt. eigenvalues --    2.45612   2.46641   2.49433   2.57798   2.58266
 Alpha virt. eigenvalues --    2.63174   2.67828   2.69224   2.69951   2.80811
 Alpha virt. eigenvalues --    3.04686   3.05759   3.07280   3.07668   3.10387
 Alpha virt. eigenvalues --    3.11125   3.12747   3.16073   3.29954   3.30626
 Alpha virt. eigenvalues --    3.32216   3.51005   3.51688   3.53148   3.54758
 Alpha virt. eigenvalues --    3.56848   3.57566   3.60042   3.64174   3.65737
 Alpha virt. eigenvalues --    3.68793   3.97155   3.97720   3.99222   3.99619
 Alpha virt. eigenvalues --    3.99913   4.02111   4.02844   4.04552   4.08953
 Alpha virt. eigenvalues --    4.10284   4.10997   4.13529   4.14081   4.17541
 Alpha virt. eigenvalues --    4.20401   4.22643   4.25260   4.26536   4.29944
 Alpha virt. eigenvalues --    4.35742   4.37926   4.39504   4.42066   4.45847
 Alpha virt. eigenvalues --    4.46838   4.48948   4.52501   4.54076   4.54497
 Alpha virt. eigenvalues --    4.55679   4.58688   4.59435   4.62115   4.63119
 Alpha virt. eigenvalues --    4.75926   4.90669   4.91416   4.93093   4.93481
 Alpha virt. eigenvalues --    4.96393   4.96632   4.97378   5.08834   5.09506
 Alpha virt. eigenvalues --    5.13312   5.15808   5.18694   5.24962   5.25636
 Alpha virt. eigenvalues --    5.27052   5.28571   5.29843   5.31898   5.40575
 Alpha virt. eigenvalues --    5.43053   5.47106   5.47521   5.50489   5.51868
 Alpha virt. eigenvalues --    5.72055   5.72888   5.76430   6.13451   6.14150
 Alpha virt. eigenvalues --    6.15441   6.23094   6.23158   6.80603   6.81376
 Alpha virt. eigenvalues --    6.83423   6.96836   7.64247   7.65843   7.67650
 Alpha virt. eigenvalues --    8.04589   8.06008   8.08511  10.27462  15.36581
 Alpha virt. eigenvalues --   52.28281
          Condensed to atoms (all electrons):
 Mulliken charges:
               1
     1  C   -0.272171
     2  H    0.155012
     3  H    0.093379
     4  H   -0.062616
     5  H    0.079701
     6  C    0.005473
     7  H   -0.001145
     8  H   -0.002709
     9  H    0.004558
    10  H    0.000518
 Sum of Mulliken charges =   0.00000
 Mulliken charges with hydrogens summed into heavy atoms:
               1
     1  C   -0.006694
     6  C    0.006694
 Electronic spatial extent (au):  <R**2>=             36.0921
 Charge=              0.0000 electrons
 Dipole moment (field-independent basis, Debye):
    X=             -0.0002    Y=              0.0001    Z=              0.0001  Tot=              0.0002

 Test job not archived.
 1\1\GINC-CHIMERA-NODE25\SP\RM05\Gen\C2H8\CONNORNM\05-Dec-2018\0\\#T M0
 5/Gen test Massage Symmetry=None SCF=(tight,maxcyc=60)\\M05 opt\\0,1\C
 ,0,0.,0.,0.\H,0,0.92018283,0.,0.61583237\H,0,-0.4106018,1.02707612,-0.
 05006761\H,0,0.23992215,-0.35179766,-1.02208695\H,0,-0.74950318,-0.675
 27846,0.45632219\C,0,0.,0.,3.76321352\H,0,0.28555812,-1.03066341,4.049
 87614\H,0,0.87294557,0.5140806,3.31636553\H,0,-0.82420607,-0.03723619,
 3.0247802\H,0,-0.33429761,0.553819,4.66183223\\Version=AS64L-G09RevD.0
 1\HF=-44.924278\RMSD=2.009e-09\Dipole=-0.0000676,0.0000252,0.0000286\Q
 uadrupole=-0.000128,-0.001231,0.001359,0.0001245,-0.0007554,0.0012231\
 PG=Unknown\\@


 TIME IS NATURE'S WAY OF MAKING SURE EVERYTHING
 DOESN'T HAPPEN AT ONCE.
                     - WOODY ALLEN
 Job cpu time:       0 days  0 hours 16 minutes 21.3 seconds.
 File lengths (MBytes):  RWF=     41 Int=      0 D2E=      0 Chk=      4 Scr=      1
 Normal termination of Gaussian 09 at Wed Dec  5 22:05:05 2018.
