 Entering Gaussian System, Link 0=/data/szalewicgrp/connornm/opt/Gaussian/g09-M05-par/g09/g09
 AtFile(1): aug-cc-pVTZ.gbs
 Initial command:
 /data/szalewicgrp/connornm/opt/Gaussian/g09-M05-par/g09/l1.exe "/scratch/local/Gau-36084.inp" -scrdir="/scratch/local/"
 Entering Link 1 = /data/szalewicgrp/connornm/opt/Gaussian/g09-M05-par/g09/l1.exe PID=     36085.
  
 Copyright (c) 1988,1990,1992,1993,1995,1998,2003,2009,2013,
            Gaussian, Inc.  All Rights Reserved.
  
 This is part of the Gaussian(R) 09 program.  It is based on
 the Gaussian(R) 03 system (copyright 2003, Gaussian, Inc.),
 the Gaussian(R) 98 system (copyright 1998, Gaussian, Inc.),
 the Gaussian(R) 94 system (copyright 1995, Gaussian, Inc.),
 the Gaussian 92(TM) system (copyright 1992, Gaussian, Inc.),
 the Gaussian 90(TM) system (copyright 1990, Gaussian, Inc.),
 the Gaussian 88(TM) system (copyright 1988, Gaussian, Inc.),
 the Gaussian 86(TM) system (copyright 1986, Carnegie Mellon
 University), and the Gaussian 82(TM) system (copyright 1983,
 Carnegie Mellon University). Gaussian is a federally registered
 trademark of Gaussian, Inc.
  
 This software contains proprietary and confidential information,
 including trade secrets, belonging to Gaussian, Inc.
  
 This software is provided under written license and may be
 used, copied, transmitted, or stored only in accord with that
 written license.
  
 The following legend is applicable only to US Government
 contracts under FAR:
  
                    RESTRICTED RIGHTS LEGEND
  
 Use, reproduction and disclosure by the US Government is
 subject to restrictions as set forth in subparagraphs (a)
 and (c) of the Commercial Computer Software - Restricted
 Rights clause in FAR 52.227-19.
  
 Gaussian, Inc.
 340 Quinnipiac St., Bldg. 40, Wallingford CT 06492
  
  
 ---------------------------------------------------------------
 Warning -- This program may not be used in any manner that
 competes with the business of Gaussian, Inc. or will provide
 assistance to any competitor of Gaussian, Inc.  The licensee
 of this program is prohibited from giving any competitor of
 Gaussian, Inc. access to this program.  By using this program,
 the user acknowledges that Gaussian, Inc. is engaged in the
 business of creating and licensing software in the field of
 computational chemistry and represents and warrants to the
 licensee that it is not a competitor of Gaussian, Inc. and that
 it will not use this program in any manner prohibited above.
 ---------------------------------------------------------------
  

 Cite this work as:
 Gaussian 09, Revision D.01,
 M. J. Frisch, G. W. Trucks, H. B. Schlegel, G. E. Scuseria, 
 M. A. Robb, J. R. Cheeseman, G. Scalmani, V. Barone, B. Mennucci, 
 G. A. Petersson, H. Nakatsuji, M. Caricato, X. Li, H. P. Hratchian, 
 A. F. Izmaylov, J. Bloino, G. Zheng, J. L. Sonnenberg, M. Hada, 
 M. Ehara, K. Toyota, R. Fukuda, J. Hasegawa, M. Ishida, T. Nakajima, 
 Y. Honda, O. Kitao, H. Nakai, T. Vreven, J. A. Montgomery, Jr., 
 J. E. Peralta, F. Ogliaro, M. Bearpark, J. J. Heyd, E. Brothers, 
 K. N. Kudin, V. N. Staroverov, T. Keith, R. Kobayashi, J. Normand, 
 K. Raghavachari, A. Rendell, J. C. Burant, S. S. Iyengar, J. Tomasi, 
 M. Cossi, N. Rega, J. M. Millam, M. Klene, J. E. Knox, J. B. Cross, 
 V. Bakken, C. Adamo, J. Jaramillo, R. Gomperts, R. E. Stratmann, 
 O. Yazyev, A. J. Austin, R. Cammi, C. Pomelli, J. W. Ochterski, 
 R. L. Martin, K. Morokuma, V. G. Zakrzewski, G. A. Voth, 
 P. Salvador, J. J. Dannenberg, S. Dapprich, A. D. Daniels, 
 O. Farkas, J. B. Foresman, J. V. Ortiz, J. Cioslowski, 
 and D. J. Fox, Gaussian, Inc., Wallingford CT, 2013.
 
 ******************************************
 Gaussian 09:  AS64L-G09RevD.01 24-Apr-2013
                 6-Dec-2018 
 ******************************************
 %Chk=CH400017
 %Mem=2GB
 %NProcShared=16
 Will use up to   16 processors via shared memory.
 -----------------------------------------------------------
 #T M05/Gen test Massage Symmetry=None SCF=(tight,maxcyc=60)
 -----------------------------------------------------------
 -------
 M05 opt
 -------
 Symbolic Z-matrix:
 Charge =  0 Multiplicity = 1
 6                     0.        0.        0. 
 1                     0.65023   0.        0.8962 
 1                    -0.99804  -0.39749   0.26813 
 1                    -0.10472   1.0347   -0.38001 
 1                     0.45253  -0.63721  -0.78432 
 6-Bq                  0.        0.        2.77979 
 1-Bq                  0.30384  -1.05649   2.64756 
 1-Bq                  0.81752   0.66456   2.43919 
 1-Bq                 -0.91086   0.19958   2.18272 
 1-Bq                 -0.21051   0.19236   3.84968 
 
                    Distance matrix (angstroms):
                    1          2          3          4          5
     1  C    0.000000
     2  H    1.107243   0.000000
     3  H    1.107243   1.808119   0.000000
     4  H    1.107242   1.808119   1.808119   0.000000
     5  H    1.107243   1.808119   1.808119   1.808119   0.000000
     6  C    2.779789   1.992659   2.731762   3.326547   3.648796
     7  H    2.866718   2.074466   2.791215   3.702191   3.460596
     8  H    2.656995   1.688319   3.022867   2.989220   3.495546
     9  H    2.373560   2.032728   2.007427   2.813346   3.370820
    10  H    3.860228   3.082352   3.714250   4.314050   4.754136
                    6          7          8          9         10
     6  C    0.000000
     7  H    1.107243   0.000000
     8  H    1.107243   1.808119   0.000000
     9  H    1.107243   1.808119   1.808119   0.000000
    10  H    1.107243   1.808119   1.808119   1.808119   0.000000
 Symmetry turned off by external request.
 Rotational constants (GHZ):     76.6916054      7.3747292      7.3747292
   276 basis functions,   360 primitive gaussians,   310 cartesian basis functions
     5 alpha electrons        5 beta electrons
       nuclear repulsion energy        13.2261670022 Hartrees.
 IMHF & INEx in M05                  614413                  385587
 NAtoms=   10 NActive=   10 NUniq=   10 SFac= 1.00D+00 NAtFMM=   60 NAOKFM=F Big=F
 ExpMin= 2.53D-02 ExpMax= 8.24D+03 ExpMxC= 2.81D+02 IAcc=3 IRadAn=         5 AccDes= 0.00D+00
 Harris functional with IExCor= 1009 and IRadAn=       5 diagonalized for initial guess.
 HarFok:  IExCor= 1009 AccDes= 0.00D+00 IRadAn=         5 IDoV= 1 UseB2=F ITyADJ=14
 ICtDFT=  3500011 ScaDFX=  1.000000  1.000000  1.000000  1.000000
 FoFCou: FMM=F IPFlag=           0 FMFlag=      100000 FMFlg1=           0
         NFxFlg=           0 DoJE=T BraDBF=F KetDBF=T FulRan=T
         wScrn=  0.000000 ICntrl=     500 IOpCl=  0 I1Cent=   200000004 NGrid=           0
         NMat0=    1 NMatS0=      1 NMatT0=    0 NMatD0=    1 NMtDS0=    0 NMtDT0=    0
 Symmetry not used in FoFCou.
 SCF Done:  E(RM05) =  -40.9123054244     A.U. after    7 cycles
            NFock=  7  Conv=0.66D-08     -V/T= 2.0127

 **********************************************************************

            Population analysis using the SCF density.

 **********************************************************************

 Alpha  occ. eigenvalues --  -10.74531  -0.82769  -0.48755  -0.48753  -0.48752
 Alpha virt. eigenvalues --   -0.00122   0.02440   0.02696   0.02849   0.04734
 Alpha virt. eigenvalues --    0.05242   0.05509   0.07196   0.07867   0.08985
 Alpha virt. eigenvalues --    0.09452   0.10526   0.10785   0.11159   0.12531
 Alpha virt. eigenvalues --    0.14250   0.15422   0.16229   0.17011   0.18879
 Alpha virt. eigenvalues --    0.21552   0.21756   0.22912   0.26048   0.26506
 Alpha virt. eigenvalues --    0.26780   0.27886   0.28111   0.29135   0.29266
 Alpha virt. eigenvalues --    0.29898   0.30855   0.30928   0.31447   0.33038
 Alpha virt. eigenvalues --    0.34037   0.34965   0.35563   0.36193   0.36535
 Alpha virt. eigenvalues --    0.36679   0.39214   0.40225   0.42309   0.43097
 Alpha virt. eigenvalues --    0.43797   0.44583   0.46172   0.46967   0.47268
 Alpha virt. eigenvalues --    0.48165   0.50172   0.51269   0.52125   0.52835
 Alpha virt. eigenvalues --    0.53810   0.55863   0.59583   0.61864   0.62528
 Alpha virt. eigenvalues --    0.63679   0.63910   0.65903   0.69410   0.71672
 Alpha virt. eigenvalues --    0.72316   0.72876   0.75577   0.78357   0.79052
 Alpha virt. eigenvalues --    0.80465   0.82045   0.83801   0.85207   0.87789
 Alpha virt. eigenvalues --    0.88097   0.89025   0.91064   0.92377   0.92888
 Alpha virt. eigenvalues --    0.94191   0.95608   0.96232   0.97554   0.99186
 Alpha virt. eigenvalues --    0.99871   1.01493   1.01662   1.02130   1.03042
 Alpha virt. eigenvalues --    1.04886   1.07657   1.09029   1.09783   1.10623
 Alpha virt. eigenvalues --    1.11282   1.12586   1.13138   1.13359   1.15551
 Alpha virt. eigenvalues --    1.17121   1.18785   1.19923   1.21547   1.22945
 Alpha virt. eigenvalues --    1.24631   1.25263   1.26121   1.30168   1.31778
 Alpha virt. eigenvalues --    1.34187   1.35208   1.36022   1.38763   1.39135
 Alpha virt. eigenvalues --    1.41086   1.44362   1.45622   1.47430   1.48785
 Alpha virt. eigenvalues --    1.49927   1.50868   1.52892   1.56420   1.58990
 Alpha virt. eigenvalues --    1.61166   1.62600   1.63845   1.65983   1.69561
 Alpha virt. eigenvalues --    1.71079   1.73635   1.74362   1.77136   1.78795
 Alpha virt. eigenvalues --    1.81550   1.84492   1.84935   1.86743   1.87996
 Alpha virt. eigenvalues --    1.90242   1.93511   1.94435   1.95685   1.96909
 Alpha virt. eigenvalues --    1.97668   2.02347   2.03230   2.04306   2.06064
 Alpha virt. eigenvalues --    2.09348   2.10345   2.17468   2.20539   2.22963
 Alpha virt. eigenvalues --    2.28446   2.31193   2.32738   2.38762   2.43917
 Alpha virt. eigenvalues --    2.48857   2.52815   2.63966   2.64718   2.74508
 Alpha virt. eigenvalues --    2.83521   2.85460   2.99095   3.02211   3.10130
 Alpha virt. eigenvalues --    3.25623   3.27743   3.30052   3.33289   3.34753
 Alpha virt. eigenvalues --    3.35514   3.40508   3.53629   3.59885   3.62320
 Alpha virt. eigenvalues --    3.64927   3.72210   3.74231   3.75833   3.79227
 Alpha virt. eigenvalues --    3.80306   3.81953   3.85566   3.86719   3.91835
 Alpha virt. eigenvalues --    3.94097   3.96161   4.03966   4.04703   4.08139
 Alpha virt. eigenvalues --    4.08695   4.16291   4.17377   4.19025   4.23156
 Alpha virt. eigenvalues --    4.23886   4.24920   4.29046   4.32160   4.35892
 Alpha virt. eigenvalues --    4.37858   4.38671   4.43737   4.45440   4.46467
 Alpha virt. eigenvalues --    4.48077   4.51454   4.52985   4.53795   4.56741
 Alpha virt. eigenvalues --    4.59314   4.65824   4.68037   4.69561   4.70827
 Alpha virt. eigenvalues --    4.76298   4.81646   4.82351   4.84932   4.90176
 Alpha virt. eigenvalues --    4.90766   4.97791   5.01915   5.06874   5.08046
 Alpha virt. eigenvalues --    5.15117   5.17147   5.20249   5.22366   5.25863
 Alpha virt. eigenvalues --    5.27032   5.29581   5.30760   5.32846   5.33261
 Alpha virt. eigenvalues --    5.44024   5.47611   5.48610   5.51166   5.54292
 Alpha virt. eigenvalues --    5.55730   5.62544   5.67298   5.70218   5.84223
 Alpha virt. eigenvalues --    6.06822   6.07402   6.08800   6.11215   6.14191
 Alpha virt. eigenvalues --    6.14999   6.19181   6.23490   6.78675   6.82557
 Alpha virt. eigenvalues --    6.84093   6.94897   7.57708   7.58603   7.64475
 Alpha virt. eigenvalues --    8.00035   8.04136   8.12244  10.46186  17.15722
 Alpha virt. eigenvalues --   53.03876
          Condensed to atoms (all electrons):
 Mulliken charges:
               1
     1  C   -1.994093
     2  H    0.621079
     3  H    0.488704
     4  H    0.463515
     5  H    0.359720
     6  C   -0.024494
     7  H    0.033403
     8  H    0.038070
     9  H    0.029746
    10  H   -0.015649
 Sum of Mulliken charges =  -0.00000
 Mulliken charges with hydrogens summed into heavy atoms:
               1
     1  C   -0.061076
     6  C    0.061076
 Electronic spatial extent (au):  <R**2>=             36.5411
 Charge=              0.0000 electrons
 Dipole moment (field-independent basis, Debye):
    X=              0.0002    Y=              0.0001    Z=              0.0001  Tot=              0.0002

 Test job not archived.
 1\1\GINC-CHIMERA-NODE29\SP\RM05\Gen\C2H8\CONNORNM\06-Dec-2018\0\\#T M0
 5/Gen test Massage Symmetry=None SCF=(tight,maxcyc=60)\\M05 opt\\0,1\C
 ,0,0.,0.,0.\H,0,0.65023301,0.,0.89620477\H,0,-0.99804416,-0.39749237,0
 .26812987\H,0,-0.10472189,1.03470302,-0.38001176\H,0,0.45253305,-0.637
 21065,-0.78432288\C,0,0.,0.,2.77978855\H,0,0.3038441,-1.05649431,2.647
 55958\H,0,0.81752323,0.66455516,2.43918884\H,0,-0.91086228,0.19957608,
 2.18272468\H,0,-0.21050506,0.19236307,3.84968108\\Version=AS64L-G09Rev
 D.01\HF=-40.9123054\RMSD=6.574e-09\Dipole=0.0000637,0.0000338,0.000020
 3\Quadrupole=0.0005369,-0.0003895,-0.0001475,-0.0002455,-0.0000685,0.0
 001708\PG=Unknown\\@


 HOW IS IT THAT THE SKY FEEDS THE STARS?

                           -- LUCRETIUS
 Job cpu time:       0 days  0 hours 13 minutes 20.0 seconds.
 File lengths (MBytes):  RWF=     41 Int=      0 D2E=      0 Chk=      4 Scr=      1
 Normal termination of Gaussian 09 at Thu Dec  6 13:20:46 2018.
