 Entering Gaussian System, Link 0=/data/szalewicgrp/connornm/opt/Gaussian/g09-M05-par/g09/g09
 AtFile(1): aug-cc-pVTZ.gbs
 Initial command:
 /data/szalewicgrp/connornm/opt/Gaussian/g09-M05-par/g09/l1.exe "/scratch/local/Gau-35733.inp" -scrdir="/scratch/local/"
 Entering Link 1 = /data/szalewicgrp/connornm/opt/Gaussian/g09-M05-par/g09/l1.exe PID=     35734.
  
 Copyright (c) 1988,1990,1992,1993,1995,1998,2003,2009,2013,
            Gaussian, Inc.  All Rights Reserved.
  
 This is part of the Gaussian(R) 09 program.  It is based on
 the Gaussian(R) 03 system (copyright 2003, Gaussian, Inc.),
 the Gaussian(R) 98 system (copyright 1998, Gaussian, Inc.),
 the Gaussian(R) 94 system (copyright 1995, Gaussian, Inc.),
 the Gaussian 92(TM) system (copyright 1992, Gaussian, Inc.),
 the Gaussian 90(TM) system (copyright 1990, Gaussian, Inc.),
 the Gaussian 88(TM) system (copyright 1988, Gaussian, Inc.),
 the Gaussian 86(TM) system (copyright 1986, Carnegie Mellon
 University), and the Gaussian 82(TM) system (copyright 1983,
 Carnegie Mellon University). Gaussian is a federally registered
 trademark of Gaussian, Inc.
  
 This software contains proprietary and confidential information,
 including trade secrets, belonging to Gaussian, Inc.
  
 This software is provided under written license and may be
 used, copied, transmitted, or stored only in accord with that
 written license.
  
 The following legend is applicable only to US Government
 contracts under FAR:
  
                    RESTRICTED RIGHTS LEGEND
  
 Use, reproduction and disclosure by the US Government is
 subject to restrictions as set forth in subparagraphs (a)
 and (c) of the Commercial Computer Software - Restricted
 Rights clause in FAR 52.227-19.
  
 Gaussian, Inc.
 340 Quinnipiac St., Bldg. 40, Wallingford CT 06492
  
  
 ---------------------------------------------------------------
 Warning -- This program may not be used in any manner that
 competes with the business of Gaussian, Inc. or will provide
 assistance to any competitor of Gaussian, Inc.  The licensee
 of this program is prohibited from giving any competitor of
 Gaussian, Inc. access to this program.  By using this program,
 the user acknowledges that Gaussian, Inc. is engaged in the
 business of creating and licensing software in the field of
 computational chemistry and represents and warrants to the
 licensee that it is not a competitor of Gaussian, Inc. and that
 it will not use this program in any manner prohibited above.
 ---------------------------------------------------------------
  

 Cite this work as:
 Gaussian 09, Revision D.01,
 M. J. Frisch, G. W. Trucks, H. B. Schlegel, G. E. Scuseria, 
 M. A. Robb, J. R. Cheeseman, G. Scalmani, V. Barone, B. Mennucci, 
 G. A. Petersson, H. Nakatsuji, M. Caricato, X. Li, H. P. Hratchian, 
 A. F. Izmaylov, J. Bloino, G. Zheng, J. L. Sonnenberg, M. Hada, 
 M. Ehara, K. Toyota, R. Fukuda, J. Hasegawa, M. Ishida, T. Nakajima, 
 Y. Honda, O. Kitao, H. Nakai, T. Vreven, J. A. Montgomery, Jr., 
 J. E. Peralta, F. Ogliaro, M. Bearpark, J. J. Heyd, E. Brothers, 
 K. N. Kudin, V. N. Staroverov, T. Keith, R. Kobayashi, J. Normand, 
 K. Raghavachari, A. Rendell, J. C. Burant, S. S. Iyengar, J. Tomasi, 
 M. Cossi, N. Rega, J. M. Millam, M. Klene, J. E. Knox, J. B. Cross, 
 V. Bakken, C. Adamo, J. Jaramillo, R. Gomperts, R. E. Stratmann, 
 O. Yazyev, A. J. Austin, R. Cammi, C. Pomelli, J. W. Ochterski, 
 R. L. Martin, K. Morokuma, V. G. Zakrzewski, G. A. Voth, 
 P. Salvador, J. J. Dannenberg, S. Dapprich, A. D. Daniels, 
 O. Farkas, J. B. Foresman, J. V. Ortiz, J. Cioslowski, 
 and D. J. Fox, Gaussian, Inc., Wallingford CT, 2013.
 
 ******************************************
 Gaussian 09:  AS64L-G09RevD.01 24-Apr-2013
                 6-Dec-2018 
 ******************************************
 %Chk=CH400162
 %Mem=2GB
 %NProcShared=16
 Will use up to   16 processors via shared memory.
 -----------------------------------------------------------
 #T M05/Gen test Massage Symmetry=None SCF=(tight,maxcyc=60)
 -----------------------------------------------------------
 -------
 M05 opt
 -------
 Symbolic Z-matrix:
 Charge =  0 Multiplicity = 1
 6                     0.        0.        0. 
 1                     0.92567   0.       -0.60756 
 1                    -0.03526  -0.91744   0.61891 
 1                    -0.00924   0.89006   0.65856 
 1                    -0.88117   0.02738  -0.66991 
 6-Bq                  0.        0.        3.52017 
 1-Bq                  0.8119   -0.45695   4.11851 
 1-Bq                 -0.95099  -0.05651   4.08445 
 1-Bq                  0.24477   1.06011   3.31463 
 1-Bq                 -0.10568  -0.54665   2.5631 
 
                    Distance matrix (angstroms):
                    1          2          3          4          5
     1  C    0.000000
     2  H    1.107242   0.000000
     3  H    1.107242   1.808119   0.000000
     4  H    1.107242   1.808119   1.808119   0.000000
     5  H    1.107243   1.808119   1.808119   1.808119   0.000000
     6  C    3.520173   4.230250   3.043069   2.996856   4.281822
     7  H    4.222569   4.749466   3.630003   3.802625   5.101959
     8  H    4.194081   5.053709   3.686427   3.676906   4.755612
     9  H    3.488630   4.119590   3.355001   2.673610   4.267417
    10  H    2.622877   3.378695   1.980485   2.387620   3.373906
                    6          7          8          9         10
     6  C    0.000000
     7  H    1.107243   0.000000
     8  H    1.107243   1.808119   0.000000
     9  H    1.107242   1.808119   1.808119   0.000000
    10  H    1.107243   1.808119   1.808119   1.808119   0.000000
 Symmetry turned off by external request.
 Rotational constants (GHZ):     76.6916056      4.7714787      4.7714787
   276 basis functions,   360 primitive gaussians,   310 cartesian basis functions
     5 alpha electrons        5 beta electrons
       nuclear repulsion energy        13.2261670152 Hartrees.
 IMHF & INEx in M05                  614413                  385587
 NAtoms=   10 NActive=   10 NUniq=   10 SFac= 1.00D+00 NAtFMM=   60 NAOKFM=F Big=F
 ExpMin= 2.53D-02 ExpMax= 8.24D+03 ExpMxC= 2.81D+02 IAcc=3 IRadAn=         5 AccDes= 0.00D+00
 Harris functional with IExCor= 1009 and IRadAn=       5 diagonalized for initial guess.
 HarFok:  IExCor= 1009 AccDes= 0.00D+00 IRadAn=         5 IDoV= 1 UseB2=F ITyADJ=14
 ICtDFT=  3500011 ScaDFX=  1.000000  1.000000  1.000000  1.000000
 FoFCou: FMM=F IPFlag=           0 FMFlag=      100000 FMFlg1=           0
         NFxFlg=           0 DoJE=T BraDBF=F KetDBF=T FulRan=T
         wScrn=  0.000000 ICntrl=     500 IOpCl=  0 I1Cent=   200000004 NGrid=           0
         NMat0=    1 NMatS0=      1 NMatT0=    0 NMatD0=    1 NMtDS0=    0 NMtDT0=    0
 Symmetry not used in FoFCou.
 EnCoef did   100 forward-backward iterations
 Restarting incremental Fock formation.
 SCF Done:  E(RM05) =  -47.0986587164     A.U. after   22 cycles
            NFock= 22  Conv=0.55D-08     -V/T= 2.0184

 **********************************************************************

            Population analysis using the SCF density.

 **********************************************************************

 Alpha  occ. eigenvalues --  -11.25556  -0.78125  -0.59325  -0.59320  -0.59315
 Alpha virt. eigenvalues --   -0.27376  -0.22617  -0.22589  -0.22525  -0.18538
 Alpha virt. eigenvalues --   -0.18281  -0.18219  -0.17025  -0.15923  -0.08160
 Alpha virt. eigenvalues --   -0.06657  -0.06572  -0.06075  -0.04810  -0.04231
 Alpha virt. eigenvalues --   -0.03184  -0.03068  -0.00633  -0.00542  -0.00484
 Alpha virt. eigenvalues --    0.01240   0.02031   0.03557   0.04369   0.05192
 Alpha virt. eigenvalues --    0.05851   0.06273   0.06927   0.07367   0.07482
 Alpha virt. eigenvalues --    0.08033   0.08992   0.09668   0.09888   0.10363
 Alpha virt. eigenvalues --    0.10821   0.11359   0.12995   0.14018   0.15021
 Alpha virt. eigenvalues --    0.16693   0.17453   0.18449   0.18878   0.20531
 Alpha virt. eigenvalues --    0.22825   0.24105   0.24359   0.25474   0.26822
 Alpha virt. eigenvalues --    0.27903   0.28266   0.29539   0.31176   0.31201
 Alpha virt. eigenvalues --    0.33103   0.33657   0.34793   0.35249   0.35771
 Alpha virt. eigenvalues --    0.36178   0.37448   0.37707   0.39172   0.39667
 Alpha virt. eigenvalues --    0.40224   0.40376   0.41369   0.42770   0.43139
 Alpha virt. eigenvalues --    0.43701   0.46947   0.47175   0.47346   0.48027
 Alpha virt. eigenvalues --    0.48532   0.49947   0.51344   0.52175   0.53788
 Alpha virt. eigenvalues --    0.54633   0.55080   0.56465   0.57322   0.57800
 Alpha virt. eigenvalues --    0.58674   0.58895   0.61683   0.62748   0.63536
 Alpha virt. eigenvalues --    0.64383   0.68567   0.70517   0.72148   0.73518
 Alpha virt. eigenvalues --    0.77050   0.77502   0.78685   0.80753   0.81898
 Alpha virt. eigenvalues --    0.82926   0.83647   0.85745   0.86440   0.87471
 Alpha virt. eigenvalues --    0.88730   0.88976   0.89626   0.92123   0.92463
 Alpha virt. eigenvalues --    0.93958   0.95378   0.95711   0.96262   0.98107
 Alpha virt. eigenvalues --    0.99176   1.01447   1.01981   1.03597   1.04437
 Alpha virt. eigenvalues --    1.05507   1.05637   1.07979   1.08316   1.10511
 Alpha virt. eigenvalues --    1.11633   1.12354   1.15161   1.16359   1.16676
 Alpha virt. eigenvalues --    1.17775   1.19300   1.19780   1.21309   1.22871
 Alpha virt. eigenvalues --    1.24897   1.25336   1.26734   1.27449   1.29726
 Alpha virt. eigenvalues --    1.33565   1.34995   1.36364   1.44882   1.47548
 Alpha virt. eigenvalues --    1.49149   1.51065   1.52425   1.53600   1.57165
 Alpha virt. eigenvalues --    1.61957   1.62871   1.65949   1.68331   1.75417
 Alpha virt. eigenvalues --    1.76050   1.79680   1.83212   1.84923   1.87656
 Alpha virt. eigenvalues --    1.92641   1.96159   1.98331   2.00332   2.01893
 Alpha virt. eigenvalues --    2.04564   2.07088   2.07286   2.10003   2.12281
 Alpha virt. eigenvalues --    2.12673   2.16092   2.16449   2.18575   2.21781
 Alpha virt. eigenvalues --    2.23971   2.25395   2.25633   2.28292   2.28885
 Alpha virt. eigenvalues --    2.29581   2.30048   2.31351   2.33625   2.35140
 Alpha virt. eigenvalues --    2.40093   2.46611   2.48963   2.50103   2.61769
 Alpha virt. eigenvalues --    2.62174   2.63244   2.64068   2.65933   2.67095
 Alpha virt. eigenvalues --    2.67338   2.68208   2.69711   2.71801   2.72008
 Alpha virt. eigenvalues --    2.72655   2.78080   2.92360   2.92802   2.96733
 Alpha virt. eigenvalues --    3.11830   3.22901   3.23494   3.25678   3.25787
 Alpha virt. eigenvalues --    3.26308   3.28235   3.28464   3.30689   3.50581
 Alpha virt. eigenvalues --    3.51785   3.60480   3.74049   3.77145   3.77199
 Alpha virt. eigenvalues --    3.78611   3.80593   3.85611   3.85725   3.90744
 Alpha virt. eigenvalues --    3.99409   4.00086   4.02731   4.09110   4.11947
 Alpha virt. eigenvalues --    4.15762   4.21376   4.22269   4.25810   4.31669
 Alpha virt. eigenvalues --    4.37628   4.37990   4.56479   4.57696   4.61095
 Alpha virt. eigenvalues --    4.68606   4.77221   4.79307   4.98842   4.99576
 Alpha virt. eigenvalues --    5.00552   5.01535   5.05313   5.17876   5.26186
 Alpha virt. eigenvalues --    5.27752   5.35004   5.38719   5.80456   5.82245
 Alpha virt. eigenvalues --    5.92515   5.95077   6.00079   6.42056   6.56147
 Alpha virt. eigenvalues --    6.59770   6.76376   7.18364   7.44469   7.50424
 Alpha virt. eigenvalues --    7.80045   7.83845   7.85681  10.11036  12.60823
 Alpha virt. eigenvalues --   52.89050
          Condensed to atoms (all electrons):
 Mulliken charges:
               1
     1  C   -0.258323
     2  H   -0.293993
     3  H    0.069008
     4  H    0.415932
     5  H   -0.283071
     6  C    0.080508
     7  H    0.018913
     8  H    0.024808
     9  H   -0.035384
    10  H    0.261602
 Sum of Mulliken charges =  -0.00000
 Mulliken charges with hydrogens summed into heavy atoms:
               1
     1  C   -0.350447
     6  C    0.350447
 Electronic spatial extent (au):  <R**2>=             40.0882
 Charge=             -0.0000 electrons
 Dipole moment (field-independent basis, Debye):
    X=              0.0007    Y=             -0.0000    Z=             -0.0004  Tot=              0.0008

 Test job not archived.
 1\1\GINC-CHIMERA-NODE29\SP\RM05\Gen\C2H8\CONNORNM\06-Dec-2018\0\\#T M0
 5/Gen test Massage Symmetry=None SCF=(tight,maxcyc=60)\\M05 opt\\0,1\C
 ,0,0.,0.,0.\H,0,0.92566775,0.,-0.60755672\H,0,-0.03526024,-0.91743856,
 0.61890965\H,0,-0.00923867,0.89005886,0.65855586\H,0,-0.88116884,0.027
 3797,-0.66990879\C,0,0.,0.,3.52017323\H,0,0.8118998,-0.45694685,4.1185
 0779\H,0,-0.95099097,-0.05650693,4.08445073\H,0,0.24477351,1.06010634,
 3.31463387\H,0,-0.10568234,-0.54665257,2.56310052\\Version=AS64L-G09Re
 vD.01\HF=-47.0986587\RMSD=5.511e-09\Dipole=0.0002579,-0.0000093,-0.000
 1603\Quadrupole=0.002186,0.0050956,-0.0072816,0.0001245,0.0012953,0.00
 03309\PG=Unknown\\@


 WE HAVE SEEN THAT MAN ON THE AVERAGE DOES NOT LIVE ABOVE
 TWO-AND-TWENTY YEARS.  DURING THESE TWO AND TWENTY
 YEARS HE IS LIABLE TO TWO AND TWENTY THOUSAND EVILS,
 MANY OF WHICH ARE INCURABLE.  YET EVEN IN THIS DREADFUL STATE
 MEN STILL STRUT AND POSE ON THE STAGE OF LIFE.
 THEY MAKE LOVE AT THE RISK OF DESTRUCTION,
 INTRIGUE, CARRY ON WAR, AND FORM PROJECTS, JUST AS IF THEY
 WERE TO LIVE IN LUXURY AND HAPPINESS FOR A THOUSAND
 AGES.

                                              -- VOLTAIRE
 Job cpu time:       0 days  0 hours 36 minutes 38.4 seconds.
 File lengths (MBytes):  RWF=     41 Int=      0 D2E=      0 Chk=      4 Scr=      1
 Normal termination of Gaussian 09 at Thu Dec  6 13:18:14 2018.
