
                                 *****************
                                 * O   R   C   A *
                                 *****************

           --- An Ab Initio, DFT and Semiempirical electronic structure package ---

                  #######################################################
                  #                        -***-                        #
                  #  Department of molecular theory and spectroscopy    #
                  #              Directorship: Frank Neese              #
                  # Max Planck Institute for Chemical Energy Conversion #
                  #                  D-45470 Muelheim/Ruhr              #
                  #                       Germany                       #
                  #                                                     #
                  #                  All rights reserved                #
                  #                        -***-                        #
                  #######################################################


                         Program Version 4.0.0.1 - RELEASE -


 With contributions from (in alphabetic order):
   Daniel Aravena         : Magnetic Properties
   Michael Atanasov       : Ab Initio Ligand Field Theory
   Ute Becker             : Parallelization
   Martin Brehm           : Molecular dynamics
   Dmytro Bykov           : SCF Hessian
   Vijay G. Chilkuri      : MRCI spin determinant printing
   Dipayan Datta          : RHF DLPNO-CCSD density
   Achintya Kumar Dutta   : EOM-CC, STEOM-CC
   Dmitry Ganyushin       : Spin-Orbit,Spin-Spin,Magnetic field MRCI
   Yang Guo               : DLPNO-NEVPT2, CIM, IAO-localization
   Andreas Hansen         : Spin unrestricted coupled pair/coupled cluster methods
   Lee Huntington         : MR-EOM, pCC
   Robert Izsak           : Overlap fitted RIJCOSX, COSX-SCS-MP3, EOM
   Christian Kollmar      : KDIIS, OOCD, Brueckner-CCSD(T), CCSD density
   Simone Kossmann        : Meta GGA functionals, TD-DFT gradient, OOMP2, MP2 Hessian
   Martin Krupicka        : AUTO-CI
   Dagmar Lenk            : GEPOL surface
   Dimitrios Liakos       : Extrapolation schemes; parallel MDCI
   Dimitrios Manganas     : ROCIS; embedding schemes
   Dimitrios Pantazis     : SARC Basis sets
   Taras Petrenko         : DFT Hessian,TD-DFT gradient, ASA, ECA, R-Raman, ABS, FL, XAS/XES, NRVS
   Peter Pinski           : DLPNO-MP2
   Christoph Reimann      : Effective Core Potentials
   Marius Retegan         : Local ZFS, SOC
   Christoph Riplinger    : Optimizer, TS searches, QM/MM, DLPNO-CCSD(T), (RO)-DLPNO pert. Triples
   Tobias Risthaus        : Range-separated hybrids, TD-DFT gradient, RPA, STAB
   Michael Roemelt        : Restricted open shell CIS
   Masaaki Saitow         : Open-shell DLPNO
   Barbara Sandhoefer     : DKH picture change effects
   Kantharuban Sivalingam : CASSCF convergence, NEVPT2, FIC-MRCI
   Georgi Stoychev        : AutoAux
   Boris Wezisla          : Elementary symmetry handling
   Frank Wennmohs         : Technical directorship


 We gratefully acknowledge several colleagues who have allowed us to
 interface, adapt or use parts of their codes:
   Stefan Grimme, W. Hujo, H. Kruse,             : VdW corrections, initial TS optimization,
                  C. Bannwarth                     DFT functionals, gCP, sTDA/sTD-DF
   Ed Valeev                                     : LibInt (2-el integral package), F12 methods
   Garnet Chan, S. Sharma, J. Yang, R. Olivares  : DMRG
   Ulf Ekstrom                                   : XCFun DFT Library
   Mihaly Kallay                                 : mrcc  (arbitrary order and MRCC methods)
   Jiri Pittner, Ondrej Demel                    : Mk-CCSD
   Frank Weinhold                                : gennbo (NPA and NBO analysis)
   Christopher J. Cramer and Donald G. Truhlar   : smd solvation model


 Your calculation uses the libint2 library for the computation of 2-el integrals
 For citations please refer to: http://libint.valeyev.net

 This ORCA versions uses:
   CBLAS   interface :  Fast vector & matrix operations
   LAPACKE interface :  Fast linear algebra routines
   SCALAPACK package :  Parallel linear algebra routines


Your calculation utilizes the basis: def2-TZVP
   F. Weigend and R. Ahlrichs, Phys. Chem. Chem. Phys. 7, 3297 (2005).

================================================================================
                                        WARNINGS
                       Please study these warnings very carefully!
================================================================================

Warning: TCutStore was < 0. Adjusted to Thresh (uncritical)

INFO   : the flag for use of LIBINT has been found!

================================================================================
                                       INPUT FILE
================================================================================
NAME = data/orca/BLIND00001.inp
|  1> ! HF def2-TZVP
|  2> 
|  3> %scf
|  4>   convergence tight
|  5> end
|  6> 
|  7> *xyz 0 1
|  8>   6        -0.68617648       -0.73849905       -0.15776534
|  9>   6        -1.26591708        0.53579698        0.09893900
| 10>  16         0.86222014       -1.00614799       -0.94475237
| 11>  16        -0.49602283        2.07684620       -0.30973995
| 12>   6         1.75565719        0.42220208       -0.39184332
| 13>   6         1.21435498        1.64379847       -0.14216707
| 14>   6        -1.55657875       -1.73307428        0.24038438
| 15>   7        -2.45866377        0.55718342        0.64185518
| 16>  16        -3.00030985       -1.00149499        0.86107660
| 17>   6         3.15649520        0.19194895       -0.26644000
| 18>   7         4.29427109       -0.03724577       -0.20218394
| 19>   6         2.03188838        2.74297154        0.25456918
| 20>   7         2.66273291        3.67299364        0.55125115
| 21>   6        -1.38550466       -3.13626915        0.15704016
| 22>   7        -1.26597949       -4.29040470        0.08789701
| 23>   6        -0.66599954       -0.67042169        5.97505532
| 24>   6         0.58832663       -1.24577937        6.32356078
| 25>  16        -1.40472557        0.70840010        6.77608651
| 26>  16         1.63440613       -0.63743041        7.61592975
| 27>   6         0.04092628        1.62741955        7.23392496
| 28>   6         1.24432792        1.09072445        7.56773165
| 29>   6        -1.24680558       -1.40345187        4.95985370
| 30>   7         0.96723158       -2.31189624        5.66198246
| 31>  16        -0.20763934       -2.73205540        4.56013786
| 32>   6        -0.17903461        3.03505231        7.26965831
| 33>   7        -0.41320695        4.17299200        7.30773190
| 34>   6         2.33342142        1.91987981        7.96812978
| 35>   7         3.23841250        2.55426425        8.32795427
| 36>   6        -2.49368274       -1.18979059        4.32360324
| 37>   7        -3.51819570       -1.03493590        3.79683087
| 38> *
| 39> 
| 40> 
| 41>                          ****END OF INPUT****
================================================================================

                       ****************************
                       * Single Point Calculation *
                       ****************************

---------------------------------
CARTESIAN COORDINATES (ANGSTROEM)
---------------------------------
  C     -0.686176   -0.738499   -0.157765
  C     -1.265917    0.535797    0.098939
  S      0.862220   -1.006148   -0.944752
  S     -0.496023    2.076846   -0.309740
  C      1.755657    0.422202   -0.391843
  C      1.214355    1.643798   -0.142167
  C     -1.556579   -1.733074    0.240384
  N     -2.458664    0.557183    0.641855
  S     -3.000310   -1.001495    0.861077
  C      3.156495    0.191949   -0.266440
  N      4.294271   -0.037246   -0.202184
  C      2.031888    2.742972    0.254569
  N      2.662733    3.672994    0.551251
  C     -1.385505   -3.136269    0.157040
  N     -1.265979   -4.290405    0.087897
  C     -0.666000   -0.670422    5.975055
  C      0.588327   -1.245779    6.323561
  S     -1.404726    0.708400    6.776087
  S      1.634406   -0.637430    7.615930
  C      0.040926    1.627420    7.233925
  C      1.244328    1.090724    7.567732
  C     -1.246806   -1.403452    4.959854
  N      0.967232   -2.311896    5.661982
  S     -0.207639   -2.732055    4.560138
  C     -0.179035    3.035052    7.269658
  N     -0.413207    4.172992    7.307732
  C      2.333421    1.919880    7.968130
  N      3.238412    2.554264    8.327954
  C     -2.493683   -1.189791    4.323603
  N     -3.518196   -1.034936    3.796831

----------------------------
CARTESIAN COORDINATES (A.U.)
----------------------------
  NO LB      ZA    FRAG     MASS         X           Y           Z
   0 C     6.0000    0    12.011   -1.296686   -1.395561   -0.298133
   1 C     6.0000    0    12.011   -2.392237    1.012510    0.186968
   2 S    16.0000    0    32.060    1.629360   -1.901344   -1.785323
   3 S    16.0000    0    32.060   -0.937347    3.924671   -0.585324
   4 C     6.0000    0    12.011    3.317711    0.797846   -0.740477
   5 C     6.0000    0    12.011    2.294798    3.106329   -0.268657
   6 C     6.0000    0    12.011   -2.941508   -3.275036    0.454261
   7 N     7.0000    0    14.007   -4.646201    1.052924    1.212931
   8 S    16.0000    0    32.060   -5.669764   -1.892551    1.627199
   9 C     6.0000    0    12.011    5.964911    0.362731   -0.503499
  10 N     7.0000    0    14.007    8.114996   -0.070384   -0.382072
  11 C     6.0000    0    12.011    3.839713    5.183465    0.481066
  12 N     7.0000    0    14.007    5.031836    6.940952    1.041714
  13 C     6.0000    0    12.011   -2.618224   -5.926690    0.296763
  14 N     7.0000    0    14.007   -2.392355   -8.107690    0.166101
  15 C     6.0000    0    12.011   -1.258557   -1.266913   11.291218
  16 C     6.0000    0    12.011    1.111776   -2.354182   11.949798
  17 S    16.0000    0    32.060   -2.654547    1.338682   12.804948
  18 S    16.0000    0    32.060    3.088580   -1.204569   14.392021
  19 C     6.0000    0    12.011    0.077339    3.075377   13.670137
  20 C     6.0000    0    12.011    2.351439    2.061170   14.300940
  21 C     6.0000    0    12.011   -2.356121   -2.652140    9.372765
  22 N     7.0000    0    14.007    1.827803   -4.368851   10.699596
  23 S    16.0000    0    32.060   -0.392381   -5.162836    8.617412
  24 C     6.0000    0    12.011   -0.338326    5.735418   13.737663
  25 N     7.0000    0    14.007   -0.780848    7.885812   13.809612
  26 C     6.0000    0    12.011    4.409527    3.628047   15.057583
  27 N     7.0000    0    14.007    6.119713    4.826860   15.737553
  28 C     6.0000    0    12.011   -4.712377   -2.248378    8.170426
  29 N     7.0000    0    14.007   -6.648426   -1.955745    7.174971

--------------------------------
INTERNAL COORDINATES (ANGSTROEM)
--------------------------------
 C      0   0   0     0.000000000000     0.00000000     0.00000000
 C      1   0   0     1.423315373885     0.00000000     0.00000000
 S      1   2   0     1.757417603559   125.16891632     0.00000000
 S      2   1   3     1.770476867632   124.09241553   358.72321486
 C      3   1   2     1.773167251658   100.46418825    32.65294597
 C      5   3   1     1.359280711415   125.49028371   327.52006749
 C      1   2   3     1.380327207327   109.64728130   183.18571471
 N      2   1   3     1.310671593050   117.38626779   176.96599874
 S      8   2   1     1.664607128654   109.59604941   358.79490328
 C      5   3   1     1.425163017624   113.11377195   149.58077493
 N     10   5   3     1.162408291775   177.21911622    24.81889089
 C      6   5   3     1.426163367217   121.02891674   182.27137613
 N     12   6   5     1.162293473630   177.23905424   147.94674257
 C      7   1   2     1.416039705118   128.37762893   179.43120710
 N     14   7   1     1.162366512435   178.96275365   206.55751651
 C      9   8   2     5.631286931240    85.96676342    91.43261220
 C     16   9   8     1.423315374867   124.32626131   258.54062712
 S     16   9   8     1.757417606413   106.60731195    57.20615305
 S     17  16   9     1.770476865726   124.09241555   153.47833538
 C     18  16   9     1.773167241741   100.46418819   234.21707397
 C     20  18  16     1.359280708245   125.49028436   327.52006744
 C     16   9   8     1.380327218504    29.12515031   191.43533702
 N     17  16   9     1.310671589349   117.38626750   331.72111873
 S     23  17  16     1.664607137118   109.59604987   358.79490368
 C     20  18  16     1.425163026624   113.11377153   149.58077521
 N     25  20  18     1.162408285050   177.21911652    24.81889201
 C     21  20  18     1.426163358549   121.02891780   182.27137655
 N     27  21  20     1.162293481096   177.23905520   147.94674011
 C     22  16   9     1.416039703734   128.37762899   305.54851130
 N     29  22  16     1.162366512774   178.96275451   206.55752290

---------------------------
INTERNAL COORDINATES (A.U.)
---------------------------
 C      0   0   0     0.000000000000     0.00000000     0.00000000
 C      1   0   0     2.689676258842     0.00000000     0.00000000
 S      1   2   0     3.321037973659   125.16891632     0.00000000
 S      2   1   3     3.345716406267   124.09241553   358.72321486
 C      3   1   2     3.350800495272   100.46418825    32.65294597
 C      5   3   1     2.568668283697   125.49028371   327.52006749
 C      1   2   3     2.608440397048   109.64728130   183.18571471
 N      2   1   3     2.476810362374   117.38626779   176.96599874
 S      8   2   1     3.145651593729   109.59604941   358.79490328
 C      5   3   1     2.693167799502   113.11377195   149.58077493
 N     10   5   3     2.196633327254   177.21911622    24.81889089
 C      6   5   3     2.695058186272   121.02891674   182.27137613
 N     12   6   5     2.196416352404   177.23905424   147.94674257
 C      7   1   2     2.675927237432   128.37762893   179.43120710
 N     14   7   1     2.196554375742   178.96275365   206.55751651
 C      9   8   2    10.641590081574    85.96676342    91.43261220
 C     16   9   8     2.689676260697   124.32626131   258.54062712
 S     16   9   8     3.321037979052   106.60731195    57.20615305
 S     17  16   9     3.345716402666   124.09241555   153.47833538
 C     18  16   9     3.350800476532   100.46418819   234.21707397
 C     20  18  16     2.568668277706   125.49028436   327.52006744
 C     16   9   8     2.608440418169    29.12515031   191.43533702
 N     17  16   9     2.476810355381   117.38626750   331.72111873
 S     23  17  16     3.145651609723   109.59604987   358.79490368
 C     20  18  16     2.693167816510   113.11377153   149.58077521
 N     25  20  18     2.196633314546   177.21911652    24.81889201
 C     21  20  18     2.695058169890   121.02891780   182.27137655
 N     27  21  20     2.196416366513   177.23905520   147.94674011
 C     22  16   9     2.675927234816   128.37762899   305.54851130
 N     29  22  16     2.196554376384   178.96275451   206.55752290

---------------------
BASIS SET INFORMATION
---------------------
There are 3 groups of distinct atoms

 Group   1 Type C   : 11s6p2d1f contracted to 5s3p2d1f pattern {62111/411/11/1}
 Group   2 Type S   : 14s9p3d1f contracted to 5s5p2d1f pattern {73211/51111/21/1}
 Group   3 Type N   : 11s6p2d1f contracted to 5s3p2d1f pattern {62111/411/11/1}

Atom   0C    basis set group =>   1
Atom   1C    basis set group =>   1
Atom   2S    basis set group =>   2
Atom   3S    basis set group =>   2
Atom   4C    basis set group =>   1
Atom   5C    basis set group =>   1
Atom   6C    basis set group =>   1
Atom   7N    basis set group =>   3
Atom   8S    basis set group =>   2
Atom   9C    basis set group =>   1
Atom  10N    basis set group =>   3
Atom  11C    basis set group =>   1
Atom  12N    basis set group =>   3
Atom  13C    basis set group =>   1
Atom  14N    basis set group =>   3
Atom  15C    basis set group =>   1
Atom  16C    basis set group =>   1
Atom  17S    basis set group =>   2
Atom  18S    basis set group =>   2
Atom  19C    basis set group =>   1
Atom  20C    basis set group =>   1
Atom  21C    basis set group =>   1
Atom  22N    basis set group =>   3
Atom  23S    basis set group =>   2
Atom  24C    basis set group =>   1
Atom  25N    basis set group =>   3
Atom  26C    basis set group =>   1
Atom  27N    basis set group =>   3
Atom  28C    basis set group =>   1
Atom  29N    basis set group =>   3
-------------------------
ECP PARAMETER INFORMATION
-------------------------




Checking for AutoStart:
The File: data/orca/BLIND00001.gbw exists
Trying to determine its content:
     ... Fine, the file contains calculation information
     ... Fine, the calculation information was read
     ... Fine, the file contains a basis set
     ... Fine, the basis set was read
     ... Fine, the file contains ECP parameters
     ... Fine, ECP parameters were read
     ... Fine, the file contains a geometry
     ... Fine, the geometry was read
     ... The file does not contain orbitals - skipping AutoStart
------------------------------------------------------------------------------
                           ORCA GTO INTEGRAL CALCULATION
------------------------------------------------------------------------------

                         BASIS SET STATISTICS AND STARTUP INFO

 # of primitive gaussian shells          ...  642
 # of primitive gaussian functions       ... 1482
 # of contracted shells                  ...  342
 # of contracted basis functions         ...  966
 Highest angular momentum                ...    3
 Maximum contraction depth               ...    7
 Integral package used                   ... LIBINT
 Integral threshhold            Thresh   ...  2.500e-11
 Primitive cut-off              TCut     ...  2.500e-12


------------------------------ INTEGRAL EVALUATION ----------------------------


 * One electron integrals 

   ECP integrals                          Pre-screening matrix                    ... done
 Shell pair data                         ... done (   0.015 sec)

-------------------------------------------------------------------------------
                                 ORCA SCF
-------------------------------------------------------------------------------

------------
SCF SETTINGS
------------
Hamiltonian:
 Ab initio Hamiltonian  Method          .... Hartree-Fock(GTOs)


General Settings:
 Integral files         IntName         .... data/orca/BLIND00001
 Hartree-Fock type      HFTyp           .... RHF
 Total Charge           Charge          ....    0
 Multiplicity           Mult            ....    1
 Number of Electrons    NEL             ....  248
 Basis Dimension        Dim             ....  966
 Nuclear Repulsion      ENuc            ....   3483.4309570601 Eh

Convergence Acceleration:
 DIIS                   CNVDIIS         .... on
   Start iteration      DIISMaxIt       ....    12
   Startup error        DIISStart       ....  0.200000
   # of expansion vecs  DIISMaxEq       ....     5
   Bias factor          DIISBfac        ....   1.050
   Max. coefficient     DIISMaxC        ....  10.000
 Newton-Raphson         CNVNR           .... off
 SOSCF                  CNVSOSCF        .... on
   Start iteration      SOSCFMaxIt      ....   150
   Startup grad/error   SOSCFStart      ....  0.003300
 Level Shifting         CNVShift        .... on
   Level shift para.    LevelShift      ....    0.2500
   Turn off err/grad.   ShiftErr        ....    0.0010
 Zerner damping         CNVZerner       .... off
 Static damping         CNVDamp         .... on
   Fraction old density DampFac         ....    0.7000
   Max. Damping (<1)    DampMax         ....    0.9800
   Min. Damping (>=0)   DampMin         ....    0.0000
   Turn off err/grad.   DampErr         ....    0.1000
 Fernandez-Rico         CNVRico         .... off

SCF Procedure:
 Maximum # iterations   MaxIter         ....   125
 SCF integral mode      SCFMode         .... Direct
   Integral package                     .... LIBINT
 Reset frequeny         DirectResetFreq ....    20
 Integral Threshold     Thresh          ....  2.500e-11 Eh
 Primitive CutOff       TCut            ....  2.500e-12 Eh

Convergence Tolerance:
 Convergence Check Mode ConvCheckMode   .... Total+1el-Energy
 Convergence forced     ConvForced      .... 0
 Energy Change          TolE            ....  1.000e-08 Eh
 1-El. energy change                    ....  1.000e-05 Eh
 Orbital Gradient       TolG            ....  1.000e-05
 Orbital Rotation angle TolX            ....  1.000e-05
 DIIS Error             TolErr          ....  5.000e-07


Diagonalization of the overlap matrix:
Smallest eigenvalue                        ... 2.983e-05
Time for diagonalization                   ...    0.273 sec
Threshold for overlap eigenvalues          ... 1.000e-08
Number of eigenvalues below threshold      ... 0
Time for construction of square roots      ...    0.155 sec
Total time needed                          ...    0.433 sec

-------------------
DFT GRID GENERATION
-------------------

General Integration Accuracy     IntAcc      ...  4.340
Radial Grid Type                 RadialGrid  ... Gauss-Chebyshev
Angular Grid (max. acc.)         AngularGrid ... Lebedev-110
Angular grid pruning method      GridPruning ... 3 (G Style)
Weight generation scheme         WeightScheme... Becke
Basis function cutoff            BFCut       ...    1.0000e-11
Integration weight cutoff        WCut        ...    1.0000e-14
Grids for H and He will be reduced by one unit

# of grid points (after initial pruning)     ...  50948 (   0.0 sec)
# of grid points (after weights+screening)   ...  46798 (   0.3 sec)
nearest neighbour list constructed           ...    0.0 sec
Grid point re-assignment to atoms done       ...    0.0 sec
Grid point division into batches done        ...    0.0 sec
Reduced shell lists constructed in    2.4 sec

Total number of grid points                  ...    46798
Total number of batches                      ...      747
Average number of points per batch           ...       62
Average number of grid points per atom       ...     1560
Average number of shells per batch           ...   120.61 (35.27%)
Average number of basis functions per batch  ...   336.71 (34.86%)
Average number of large shells per batch     ...    75.29 (62.42%)
Average number of large basis fcns per batch ...   214.52 (63.71%)
Maximum spatial batch extension              ...  20.29, 19.08, 21.06 au
Average spatial batch extension              ...   3.80,  3.61,  4.00 au

Time for grid setup =    2.672 sec

------------------------------
INITIAL GUESS: MODEL POTENTIAL
------------------------------
Loading Hartree-Fock densities                     ... done
Calculating cut-offs                               ... done
Setting up the integral package                    ... done
Initializing the effective Hamiltonian             ... done
Starting the Coulomb interaction                   ... done (   5.3 sec)
Reading the grid                                   ... done
Mapping shells                                     ... done
Starting the XC term evaluation                    ... done (   2.2 sec)
Transforming the Hamiltonian                       ... done (   0.1 sec)
Diagonalizing the Hamiltonian                      ... done (   0.3 sec)
Back transforming the eigenvectors                 ... done (   0.1 sec)
Now organizing SCF variables                       ... done
                      ------------------
                      INITIAL GUESS DONE (  10.8 sec)
                      ------------------
--------------
SCF ITERATIONS
--------------
ITER       Energy         Delta-E        Max-DP      RMS-DP      [F,P]     Damp
               ***  Starting incremental Fock matrix formation  ***
  0  -3425.6291641180   0.000000000000 0.04248955  0.00069891  0.2928706 0.7000
  1  -3426.0706276942  -0.441463576247 0.03627402  0.00056257  0.1898364 0.7000
                               ***Turning on DIIS***
  2  -3426.3235780339  -0.252950339658 0.02074040  0.00036963  0.1429049 0.7000
  3  -3427.2264078353  -0.902829801352 0.02188146  0.00026463  0.1060504 0.7000
  4  -3427.5778265267  -0.351418691416 0.06292865  0.00070761  0.0746573 0.0000
  5  -3426.9464918027   0.631334724010 0.01038764  0.00013682  0.0076002 0.0000
  6  -3426.8944994506   0.051992352062 0.00738517  0.00008530  0.0042219 0.0000
                      *** Initiating the SOSCF procedure ***
                           *** Shutting down DIIS ***
                      *** Re-Reading the Fockian *** 
                      *** Removing any level shift *** 
ITER      Energy       Delta-E        Grad      Rot      Max-DP    RMS-DP
  7  -3426.82879992   0.0656995294  0.003151  0.003151  0.004866  0.000062
               *** Restarting incremental Fock matrix formation ***
  8  -3426.88023190  -0.0514319825  0.001510  0.003523  0.002347  0.000027
  9  -3426.88037801  -0.0001461056  0.000592  0.004147  0.002973  0.000037
 10  -3426.88044499  -0.0000669840  0.000302  0.000643  0.000520  0.000007
 11  -3426.88045346  -0.0000084618  0.000174  0.000296  0.000319  0.000004
 12  -3426.88045502  -0.0000015641  0.000037  0.000158  0.000091  0.000001
 13  -3426.88045538  -0.0000003621  0.000029  0.000152  0.000076  0.000001
 14  -3426.88045546  -0.0000000815  0.000008  0.000024  0.000019  0.000000
 15  -3426.88045548  -0.0000000132  0.000003  0.000010  0.000010  0.000000
 16  -3426.88045546   0.0000000149  0.000003  0.000012  0.000009  0.000000
                  ***Gradient check signals convergence***
              ***Rediagonalizing the Fockian in SOSCF/NRSCF***

               *****************************************************
               *                     SUCCESS                       *
               *           SCF CONVERGED AFTER  17 CYCLES          *
               *****************************************************


----------------
TOTAL SCF ENERGY
----------------

Total Energy       :        -3426.88045545 Eh          -93250.15794 eV

Components:
Nuclear Repulsion  :         3483.43095706 Eh           94788.97532 eV
Electronic Energy  :        -6910.31141251 Eh         -188039.13326 eV
One Electron Energy:       -11644.58574664 Eh         -316865.28729 eV
Two Electron Energy:         4734.27433412 Eh          128826.15403 eV

Virial components:
Potential Energy   :        -6851.65479945 Eh         -186443.00567 eV
Kinetic Energy     :         3424.77434399 Eh           93192.84773 eV
Virial Ratio       :            2.00061496


---------------
SCF CONVERGENCE
---------------

  Last Energy change         ...    6.4892e-09  Tolerance :   1.0000e-08
  Last MAX-Density change    ...    2.4755e-06  Tolerance :   1.0000e-07
  Last RMS-Density change    ...    3.9813e-08  Tolerance :   5.0000e-09
  Last Orbital Gradient      ...    1.0435e-06  Tolerance :   1.0000e-05
  Last Orbital Rotation      ...    4.2001e-06  Tolerance :   1.0000e-05

             **** THE GBW FILE WAS UPDATED (data/orca/BLIND00001.gbw) ****
             **** DENSITY FILE WAS UPDATED (data/orca/BLIND00001.scfp.tmp) ****
             **** ENERGY FILE WAS UPDATED (data/orca/BLIND00001.en.tmp) ****
----------------
ORBITAL ENERGIES
----------------

  NO   OCC          E(Eh)            E(eV) 
   0   2.0000     -92.082175     -2505.6834 
   1   2.0000     -92.072753     -2505.4270 
   2   2.0000     -92.055444     -2504.9560 
   3   2.0000     -92.050987     -2504.8347 
   4   2.0000     -92.050190     -2504.8130 
   5   2.0000     -92.046239     -2504.7055 
   6   2.0000     -15.667252      -426.3276 
   7   2.0000     -15.660392      -426.1409 
   8   2.0000     -15.639779      -425.5800 
   9   2.0000     -15.632451      -425.3806 
  10   2.0000     -15.626627      -425.2221 
  11   2.0000     -15.626520      -425.2192 
  12   2.0000     -15.625388      -425.1884 
  13   2.0000     -15.625229      -425.1841 
  14   2.0000     -11.390807      -309.9596 
  15   2.0000     -11.388903      -309.9078 
  16   2.0000     -11.388793      -309.9048 
  17   2.0000     -11.388096      -309.8858 
  18   2.0000     -11.386250      -309.8356 
  19   2.0000     -11.381738      -309.7128 
  20   2.0000     -11.381048      -309.6941 
  21   2.0000     -11.373785      -309.4964 
  22   2.0000     -11.365413      -309.2686 
  23   2.0000     -11.357504      -309.0534 
  24   2.0000     -11.340722      -308.5967 
  25   2.0000     -11.332266      -308.3666 
  26   2.0000     -11.324105      -308.1446 
  27   2.0000     -11.323722      -308.1341 
  28   2.0000     -11.323135      -308.1182 
  29   2.0000     -11.322781      -308.1085 
  30   2.0000      -9.081882      -247.1306 
  31   2.0000      -9.072693      -246.8805 
  32   2.0000      -9.058650      -246.4984 
  33   2.0000      -9.054199      -246.3773 
  34   2.0000      -9.053626      -246.3617 
  35   2.0000      -9.049700      -246.2549 
  36   2.0000      -6.762824      -184.0258 
  37   2.0000      -6.762033      -184.0043 
  38   2.0000      -6.761344      -183.9855 
  39   2.0000      -6.753441      -183.7705 
  40   2.0000      -6.752662      -183.7493 
  41   2.0000      -6.752047      -183.7325 
  42   2.0000      -6.739977      -183.4041 
  43   2.0000      -6.738991      -183.3773 
  44   2.0000      -6.738091      -183.3528 
  45   2.0000      -6.735533      -183.2832 
  46   2.0000      -6.734836      -183.2642 
  47   2.0000      -6.734547      -183.2563 
  48   2.0000      -6.733862      -183.2377 
  49   2.0000      -6.733648      -183.2319 
  50   2.0000      -6.732965      -183.2133 
  51   2.0000      -6.730921      -183.1577 
  52   2.0000      -6.729944      -183.1311 
  53   2.0000      -6.729052      -183.1068 
  54   2.0000      -1.359578       -36.9960 
  55   2.0000      -1.352546       -36.8047 
  56   2.0000      -1.280265       -34.8378 
  57   2.0000      -1.278254       -34.7831 
  58   2.0000      -1.276817       -34.7440 
  59   2.0000      -1.270893       -34.5827 
  60   2.0000      -1.260744       -34.3066 
  61   2.0000      -1.259771       -34.2801 
  62   2.0000      -1.216259       -33.0961 
  63   2.0000      -1.213235       -33.0138 
  64   2.0000      -1.175332       -31.9824 
  65   2.0000      -1.169019       -31.8106 
  66   2.0000      -1.113467       -30.2990 
  67   2.0000      -1.108140       -30.1540 
  68   2.0000      -1.096693       -29.8425 
  69   2.0000      -1.092046       -29.7161 
  70   2.0000      -0.988411       -26.8960 
  71   2.0000      -0.983166       -26.7533 
  72   2.0000      -0.954228       -25.9659 
  73   2.0000      -0.949386       -25.8341 
  74   2.0000      -0.928542       -25.2669 
  75   2.0000      -0.922670       -25.1071 
  76   2.0000      -0.832693       -22.6587 
  77   2.0000      -0.829926       -22.5834 
  78   2.0000      -0.804252       -21.8848 
  79   2.0000      -0.798394       -21.7254 
  80   2.0000      -0.762753       -20.7556 
  81   2.0000      -0.756485       -20.5850 
  82   2.0000      -0.725411       -19.7394 
  83   2.0000      -0.719984       -19.5918 
  84   2.0000      -0.669103       -18.2072 
  85   2.0000      -0.663219       -18.0471 
  86   2.0000      -0.644248       -17.5309 
  87   2.0000      -0.640228       -17.4215 
  88   2.0000      -0.628245       -17.0954 
  89   2.0000      -0.618678       -16.8351 
  90   2.0000      -0.615150       -16.7391 
  91   2.0000      -0.612361       -16.6632 
  92   2.0000      -0.605923       -16.4880 
  93   2.0000      -0.604758       -16.4563 
  94   2.0000      -0.600764       -16.3476 
  95   2.0000      -0.598477       -16.2854 
  96   2.0000      -0.594367       -16.1735 
  97   2.0000      -0.587765       -15.9939 
  98   2.0000      -0.578520       -15.7423 
  99   2.0000      -0.572409       -15.5760 
 100   2.0000      -0.568664       -15.4741 
 101   2.0000      -0.563066       -15.3218 
 102   2.0000      -0.556134       -15.1332 
 103   2.0000      -0.548087       -14.9142 
 104   2.0000      -0.535226       -14.5642 
 105   2.0000      -0.533299       -14.5118 
 106   2.0000      -0.527521       -14.3546 
 107   2.0000      -0.518538       -14.1101 
 108   2.0000      -0.512854       -13.9555 
 109   2.0000      -0.511715       -13.9245 
 110   2.0000      -0.510851       -13.9010 
 111   2.0000      -0.508582       -13.8392 
 112   2.0000      -0.505417       -13.7531 
 113   2.0000      -0.501529       -13.6473 
 114   2.0000      -0.496012       -13.4972 
 115   2.0000      -0.489962       -13.3325 
 116   2.0000      -0.481805       -13.1106 
 117   2.0000      -0.476677       -12.9710 
 118   2.0000      -0.431485       -11.7413 
 119   2.0000      -0.425977       -11.5914 
 120   2.0000      -0.412536       -11.2257 
 121   2.0000      -0.408840       -11.1251 
 122   2.0000      -0.364036        -9.9059 
 123   2.0000      -0.358177        -9.7465 
 124   0.0000      -0.011463        -0.3119 
 125   0.0000      -0.008333        -0.2268 
 126   0.0000      -0.006256        -0.1702 
 127   0.0000       0.003151         0.0857 
 128   0.0000       0.072770         1.9802 
 129   0.0000       0.077810         2.1173 
 130   0.0000       0.081854         2.2274 
 131   0.0000       0.093299         2.5388 
 132   0.0000       0.094441         2.5699 
 133   0.0000       0.100279         2.7287 
 134   0.0000       0.103635         2.8201 
 135   0.0000       0.108438         2.9507 
 136   0.0000       0.110350         3.0028 
 137   0.0000       0.113996         3.1020 
 138   0.0000       0.115451         3.1416 
 139   0.0000       0.124001         3.3742 
 140   0.0000       0.128806         3.5050 
 141   0.0000       0.133814         3.6413 
 142   0.0000       0.148252         4.0342 
 143   0.0000       0.162027         4.4090 
 144   0.0000       0.169076         4.6008 
 145   0.0000       0.170167         4.6305 
 146   0.0000       0.173163         4.7120 
 147   0.0000       0.174350         4.7443 
 148   0.0000       0.176836         4.8119 
 149   0.0000       0.185392         5.0448 
 150   0.0000       0.198162         5.3923 
 151   0.0000       0.199797         5.4368 
 152   0.0000       0.203913         5.5488 
 153   0.0000       0.211983         5.7684 
 154   0.0000       0.214802         5.8451 
 155   0.0000       0.223718         6.0877 
 156   0.0000       0.224802         6.1172 
 157   0.0000       0.231737         6.3059 
 158   0.0000       0.235345         6.4041 
 159   0.0000       0.237522         6.4633 
 160   0.0000       0.238393         6.4870 
 161   0.0000       0.246107         6.6969 
 162   0.0000       0.251883         6.8541 
 163   0.0000       0.255405         6.9499 
 164   0.0000       0.259920         7.0728 
 165   0.0000       0.262631         7.1466 
 166   0.0000       0.267069         7.2673 
 167   0.0000       0.270720         7.3667 
 168   0.0000       0.280698         7.6382 
 169   0.0000       0.283620         7.7177 
 170   0.0000       0.286165         7.7870 
 171   0.0000       0.300647         8.1810 
 172   0.0000       0.303655         8.2629 
 173   0.0000       0.311098         8.4654 
 174   0.0000       0.313989         8.5441 
 175   0.0000       0.315418         8.5830 
 176   0.0000       0.320412         8.7189 
 177   0.0000       0.323305         8.7976 
 178   0.0000       0.330451         8.9920 
 179   0.0000       0.336910         9.1678 
 180   0.0000       0.339367         9.2346 
 181   0.0000       0.343685         9.3521 
 182   0.0000       0.348740         9.4897 
 183   0.0000       0.350463         9.5366 
 184   0.0000       0.352587         9.5944 
 185   0.0000       0.355081         9.6623 
 186   0.0000       0.358931         9.7670 
 187   0.0000       0.361208         9.8290 
 188   0.0000       0.363419         9.8891 
 189   0.0000       0.370876        10.0920 
 190   0.0000       0.373606        10.1663 
 191   0.0000       0.376386        10.2420 
 192   0.0000       0.381105        10.3704 
 193   0.0000       0.385503        10.4901 
 194   0.0000       0.387433        10.5426 
 195   0.0000       0.388686        10.5767 
 196   0.0000       0.394757        10.7419 
 197   0.0000       0.395952        10.7744 
 198   0.0000       0.401069        10.9136 
 199   0.0000       0.403314        10.9747 
 200   0.0000       0.406648        11.0654 
 201   0.0000       0.408963        11.1284 
 202   0.0000       0.413758        11.2589 
 203   0.0000       0.418376        11.3846 
 204   0.0000       0.418583        11.3902 
 205   0.0000       0.423184        11.5154 
 206   0.0000       0.428085        11.6488 
 207   0.0000       0.435982        11.8637 
 208   0.0000       0.439271        11.9532 
 209   0.0000       0.442164        12.0319 
 210   0.0000       0.445732        12.1290 
 211   0.0000       0.452267        12.3068 
 212   0.0000       0.458086        12.4652 
 213   0.0000       0.468030        12.7357 
 214   0.0000       0.474652        12.9159 
 215   0.0000       0.475338        12.9346 
 216   0.0000       0.477488        12.9931 
 217   0.0000       0.484215        13.1762 
 218   0.0000       0.488443        13.2912 
 219   0.0000       0.492675        13.4064 
 220   0.0000       0.496559        13.5121 
 221   0.0000       0.498093        13.5538 
 222   0.0000       0.501399        13.6438 
 223   0.0000       0.509182        13.8556 
 224   0.0000       0.509915        13.8755 
 225   0.0000       0.517972        14.0947 
 226   0.0000       0.523656        14.2494 
 227   0.0000       0.526873        14.3369 
 228   0.0000       0.528606        14.3841 
 229   0.0000       0.533249        14.5104 
 230   0.0000       0.535546        14.5729 
 231   0.0000       0.538141        14.6436 
 232   0.0000       0.547350        14.8941 
 233   0.0000       0.552387        15.0312 
 234   0.0000       0.554653        15.0929 
 235   0.0000       0.561440        15.2776 
 236   0.0000       0.567711        15.4482 
 237   0.0000       0.577392        15.7116 
 238   0.0000       0.580272        15.7900 
 239   0.0000       0.587589        15.9891 
 240   0.0000       0.588908        16.0250 
 241   0.0000       0.592740        16.1293 
 242   0.0000       0.595777        16.2119 
 243   0.0000       0.603506        16.4222 
 244   0.0000       0.614673        16.7261 
 245   0.0000       0.616608        16.7788 
 246   0.0000       0.624158        16.9842 
 247   0.0000       0.626087        17.0367 
 248   0.0000       0.630796        17.1648 
 249   0.0000       0.639517        17.4021 
 250   0.0000       0.644459        17.5366 
 251   0.0000       0.645594        17.5675 
 252   0.0000       0.646559        17.5938 
 253   0.0000       0.649004        17.6603 
 254   0.0000       0.652483        17.7550 
 255   0.0000       0.654744        17.8165 
 256   0.0000       0.658155        17.9093 
 257   0.0000       0.662152        18.0181 
 258   0.0000       0.664518        18.0825 
 259   0.0000       0.668989        18.2041 
 260   0.0000       0.674393        18.3512 
 261   0.0000       0.675108        18.3706 
 262   0.0000       0.676898        18.4193 
 263   0.0000       0.681790        18.5524 
 264   0.0000       0.684704        18.6318 
 265   0.0000       0.689418        18.7600 
 266   0.0000       0.690348        18.7853 
 267   0.0000       0.693120        18.8608 
 268   0.0000       0.695372        18.9220 
 269   0.0000       0.704647        19.1744 
 270   0.0000       0.712138        19.3783 
 271   0.0000       0.714615        19.4457 
 272   0.0000       0.723274        19.6813 
 273   0.0000       0.725005        19.7284 
 274   0.0000       0.728589        19.8259 
 275   0.0000       0.731054        19.8930 
 276   0.0000       0.737451        20.0671 
 277   0.0000       0.739469        20.1220 
 278   0.0000       0.743160        20.2224 
 279   0.0000       0.748644        20.3716 
 280   0.0000       0.753409        20.5013 
 281   0.0000       0.756075        20.5738 
 282   0.0000       0.761316        20.7165 
 283   0.0000       0.764240        20.7960 
 284   0.0000       0.769703        20.9447 
 285   0.0000       0.772141        21.0110 
 286   0.0000       0.779912        21.2225 
 287   0.0000       0.782705        21.2985 
 288   0.0000       0.789682        21.4883 
 289   0.0000       0.793227        21.5848 
 290   0.0000       0.796687        21.6789 
 291   0.0000       0.799999        21.7691 
 292   0.0000       0.806010        21.9326 
 293   0.0000       0.807671        21.9778 
 294   0.0000       0.817503        22.2454 
 295   0.0000       0.821411        22.3517 
 296   0.0000       0.828110        22.5340 
 297   0.0000       0.830849        22.6085 
 298   0.0000       0.836606        22.7652 
 299   0.0000       0.840136        22.8613 
 300   0.0000       0.841800        22.9065 
 301   0.0000       0.843988        22.9661 
 302   0.0000       0.845453        23.0060 
 303   0.0000       0.859791        23.3961 
 304   0.0000       0.867677        23.6107 
 305   0.0000       0.869433        23.6585 
 306   0.0000       0.882430        24.0121 
 307   0.0000       0.885436        24.0939 
 308   0.0000       0.885972        24.1085 
 309   0.0000       0.891378        24.2556 
 310   0.0000       0.899339        24.4723 
 311   0.0000       0.900888        24.5144 
 312   0.0000       0.907332        24.6898 
 313   0.0000       0.916615        24.9423 
 314   0.0000       0.917334        24.9619 
 315   0.0000       0.924213        25.1491 
 316   0.0000       0.932221        25.3670 
 317   0.0000       0.945975        25.7413 
 318   0.0000       0.962395        26.1881 
 319   0.0000       0.965575        26.2746 
 320   0.0000       0.968236        26.3470 
 321   0.0000       0.969906        26.3925 
 322   0.0000       0.981766        26.7152 
 323   0.0000       0.987538        26.8723 
 324   0.0000       1.000091        27.2139 
 325   0.0000       1.005627        27.3645 
 326   0.0000       1.021877        27.8067 
 327   0.0000       1.025548        27.9066 
 328   0.0000       1.034146        28.1405 
 329   0.0000       1.035259        28.1708 
 330   0.0000       1.038255        28.2524 
 331   0.0000       1.040288        28.3077 
 332   0.0000       1.042843        28.3772 
 333   0.0000       1.051474        28.6121 
 334   0.0000       1.053072        28.6555 
 335   0.0000       1.059531        28.8313 
 336   0.0000       1.065562        28.9954 
 337   0.0000       1.068791        29.0833 
 338   0.0000       1.087720        29.5984 
 339   0.0000       1.092617        29.7316 
 340   0.0000       1.096209        29.8294 
 341   0.0000       1.106183        30.1008 
 342   0.0000       1.111659        30.2498 
 343   0.0000       1.124700        30.6047 
 344   0.0000       1.131913        30.8009 
 345   0.0000       1.133656        30.8484 
 346   0.0000       1.142375        31.0856 
 347   0.0000       1.147005        31.2116 
 348   0.0000       1.152822        31.3699 
 349   0.0000       1.158406        31.5218 
 350   0.0000       1.181968        32.1630 
 351   0.0000       1.183392        32.2017 
 352   0.0000       1.184516        32.2323 
 353   0.0000       1.187082        32.3022 
 354   0.0000       1.197117        32.5752 
 355   0.0000       1.201091        32.6833 
 356   0.0000       1.206640        32.8343 
 357   0.0000       1.213947        33.0332 
 358   0.0000       1.252426        34.0802 
 359   0.0000       1.260372        34.2965 
 360   0.0000       1.262917        34.3657 
 361   0.0000       1.274378        34.6776 
 362   0.0000       1.292544        35.1719 
 363   0.0000       1.293774        35.2054 
 364   0.0000       1.299117        35.3508 
 365   0.0000       1.304751        35.5041 
 366   0.0000       1.321401        35.9572 
 367   0.0000       1.333126        36.2762 
 368   0.0000       1.335413        36.3384 
 369   0.0000       1.344776        36.5932 
 370   0.0000       1.359300        36.9884 
 371   0.0000       1.361116        37.0378 
 372   0.0000       1.363494        37.1025 
 373   0.0000       1.366614        37.1875 
 374   0.0000       1.376275        37.4503 
 375   0.0000       1.378828        37.5198 
 376   0.0000       1.392160        37.8826 
 377   0.0000       1.395739        37.9800 
 378   0.0000       1.402446        38.1625 
 379   0.0000       1.404861        38.2282 
 380   0.0000       1.419349        38.6224 
 381   0.0000       1.424268        38.7563 
 382   0.0000       1.434631        39.0383 
 383   0.0000       1.435603        39.0647 
 384   0.0000       1.438199        39.1354 
 385   0.0000       1.441548        39.2265 
 386   0.0000       1.444795        39.3149 
 387   0.0000       1.448810        39.4241 
 388   0.0000       1.454743        39.5856 
 389   0.0000       1.459131        39.7050 
 390   0.0000       1.468125        39.9497 
 391   0.0000       1.470860        40.0241 
 392   0.0000       1.477278        40.1988 
 393   0.0000       1.482389        40.3379 
 394   0.0000       1.486205        40.4417 
 395   0.0000       1.492962        40.6256 
 396   0.0000       1.497052        40.7369 
 397   0.0000       1.501016        40.8447 
 398   0.0000       1.507262        41.0147 
 399   0.0000       1.512210        41.1493 
 400   0.0000       1.515856        41.2485 
 401   0.0000       1.521605        41.4050 
 402   0.0000       1.526569        41.5401 
 403   0.0000       1.533171        41.7197 
 404   0.0000       1.540774        41.9266 
 405   0.0000       1.553602        42.2756 
 406   0.0000       1.574816        42.8529 
 407   0.0000       1.578718        42.9591 
 408   0.0000       1.580983        43.0207 
 409   0.0000       1.585525        43.1443 
 410   0.0000       1.595881        43.4261 
 411   0.0000       1.603879        43.6438 
 412   0.0000       1.609472        43.7960 
 413   0.0000       1.616984        44.0004 
 414   0.0000       1.627528        44.2873 
 415   0.0000       1.634674        44.4817 
 416   0.0000       1.637193        44.5503 
 417   0.0000       1.639295        44.6075 
 418   0.0000       1.649761        44.8923 
 419   0.0000       1.653988        45.0073 
 420   0.0000       1.654545        45.0225 
 421   0.0000       1.659626        45.1607 
 422   0.0000       1.667261        45.3685 
 423   0.0000       1.677048        45.6348 
 424   0.0000       1.679960        45.7140 
 425   0.0000       1.684386        45.8345 
 426   0.0000       1.693096        46.0715 
 427   0.0000       1.698751        46.2254 
 428   0.0000       1.703719        46.3605 
 429   0.0000       1.707797        46.4715 
 430   0.0000       1.712903        46.6105 
 431   0.0000       1.715003        46.6676 
 432   0.0000       1.721485        46.8440 
 433   0.0000       1.725219        46.9456 
 434   0.0000       1.733812        47.1794 
 435   0.0000       1.743964        47.4557 
 436   0.0000       1.746133        47.5147 
 437   0.0000       1.747724        47.5580 
 438   0.0000       1.751002        47.6472 
 439   0.0000       1.755587        47.7720 
 440   0.0000       1.758319        47.8463 
 441   0.0000       1.763752        47.9941 
 442   0.0000       1.772100        48.2213 
 443   0.0000       1.776180        48.3323 
 444   0.0000       1.783095        48.5205 
 445   0.0000       1.788856        48.6772 
 446   0.0000       1.794831        48.8398 
 447   0.0000       1.798434        48.9379 
 448   0.0000       1.804171        49.0940 
 449   0.0000       1.806213        49.1495 
 450   0.0000       1.807716        49.1905 
 451   0.0000       1.811237        49.2863 
 452   0.0000       1.813276        49.3417 
 453   0.0000       1.814664        49.3795 
 454   0.0000       1.817803        49.4649 
 455   0.0000       1.822587        49.5951 
 456   0.0000       1.826253        49.6949 
 457   0.0000       1.829766        49.7905 
 458   0.0000       1.832300        49.8594 
 459   0.0000       1.837659        50.0053 
 460   0.0000       1.846162        50.2366 
 461   0.0000       1.850666        50.3592 
 462   0.0000       1.851715        50.3877 
 463   0.0000       1.855551        50.4921 
 464   0.0000       1.874446        51.0063 
 465   0.0000       1.876945        51.0743 
 466   0.0000       1.882335        51.2209 
 467   0.0000       1.890397        51.4403 
 468   0.0000       1.900482        51.7147 
 469   0.0000       1.916266        52.1442 
 470   0.0000       1.917762        52.1850 
 471   0.0000       1.926069        52.4110 
 472   0.0000       1.929832        52.5134 
 473   0.0000       1.935105        52.6569 
 474   0.0000       1.936023        52.6819 
 475   0.0000       1.942955        52.8705 
 476   0.0000       1.947886        53.0047 
 477   0.0000       1.954811        53.1931 
 478   0.0000       1.956699        53.2445 
 479   0.0000       1.962594        53.4049 
 480   0.0000       1.966937        53.5231 
 481   0.0000       1.968098        53.5547 
 482   0.0000       2.000698        54.4418 
 483   0.0000       2.011951        54.7480 
 484   0.0000       2.018107        54.9155 
 485   0.0000       2.027694        55.1764 
 486   0.0000       2.030875        55.2629 
 487   0.0000       2.037347        55.4390 
 488   0.0000       2.046648        55.6921 
 489   0.0000       2.048179        55.7338 
 490   0.0000       2.053913        55.8898 
 491   0.0000       2.058236        56.0074 
 492   0.0000       2.062557        56.1250 
 493   0.0000       2.066155        56.2229 
 494   0.0000       2.071234        56.3611 
 495   0.0000       2.072328        56.3909 
 496   0.0000       2.074850        56.4595 
 497   0.0000       2.077290        56.5259 
 498   0.0000       2.079891        56.5967 
 499   0.0000       2.085147        56.7397 
 500   0.0000       2.086290        56.7708 
 501   0.0000       2.104106        57.2556 
 502   0.0000       2.109296        57.3969 
 503   0.0000       2.117865        57.6300 
 504   0.0000       2.136203        58.1290 
 505   0.0000       2.142601        58.3031 
 506   0.0000       2.143420        58.3254 
 507   0.0000       2.151797        58.5534 
 508   0.0000       2.154400        58.6242 
 509   0.0000       2.158564        58.7375 
 510   0.0000       2.162997        58.8581 
 511   0.0000       2.167967        58.9934 
 512   0.0000       2.174417        59.1689 
 513   0.0000       2.181634        59.3653 
 514   0.0000       2.183917        59.4274 
 515   0.0000       2.190923        59.6180 
 516   0.0000       2.205924        60.0262 
 517   0.0000       2.207601        60.0719 
 518   0.0000       2.215407        60.2843 
 519   0.0000       2.216729        60.3203 
 520   0.0000       2.218486        60.3681 
 521   0.0000       2.224780        60.5393 
 522   0.0000       2.237187        60.8769 
 523   0.0000       2.237849        60.8950 
 524   0.0000       2.247689        61.1627 
 525   0.0000       2.249049        61.1997 
 526   0.0000       2.258890        61.4675 
 527   0.0000       2.263763        61.6001 
 528   0.0000       2.268268        61.7227 
 529   0.0000       2.274293        61.8867 
 530   0.0000       2.276599        61.9494 
 531   0.0000       2.280794        62.0636 
 532   0.0000       2.293334        62.4048 
 533   0.0000       2.299728        62.5788 
 534   0.0000       2.317732        63.0687 
 535   0.0000       2.322877        63.2087 
 536   0.0000       2.327257        63.3279 
 537   0.0000       2.331402        63.4407 
 538   0.0000       2.341400        63.7127 
 539   0.0000       2.345146        63.8147 
 540   0.0000       2.348755        63.9129 
 541   0.0000       2.354650        64.0733 
 542   0.0000       2.360256        64.2258 
 543   0.0000       2.366728        64.4019 
 544   0.0000       2.382004        64.8176 
 545   0.0000       2.388335        64.9899 
 546   0.0000       2.392680        65.1081 
 547   0.0000       2.402990        65.3887 
 548   0.0000       2.422585        65.9219 
 549   0.0000       2.426700        66.0339 
 550   0.0000       2.438210        66.3471 
 551   0.0000       2.441422        66.4345 
 552   0.0000       2.453275        66.7570 
 553   0.0000       2.455807        66.8259 
 554   0.0000       2.464073        67.0508 
 555   0.0000       2.468041        67.1588 
 556   0.0000       2.469166        67.1894 
 557   0.0000       2.473923        67.3189 
 558   0.0000       2.508944        68.2718 
 559   0.0000       2.519038        68.5465 
 560   0.0000       2.534213        68.9595 
 561   0.0000       2.535544        68.9957 
 562   0.0000       2.544713        69.2452 
 563   0.0000       2.551771        69.4372 
 564   0.0000       2.564085        69.7723 
 565   0.0000       2.570443        69.9453 
 566   0.0000       2.574369        70.0521 
 567   0.0000       2.576960        70.1227 
 568   0.0000       2.584613        70.3309 
 569   0.0000       2.587570        70.4114 
 570   0.0000       2.592857        70.5552 
 571   0.0000       2.600431        70.7613 
 572   0.0000       2.634042        71.6759 
 573   0.0000       2.641842        71.8882 
 574   0.0000       2.657005        72.3008 
 575   0.0000       2.659419        72.3665 
 576   0.0000       2.663451        72.4762 
 577   0.0000       2.671316        72.6902 
 578   0.0000       2.692767        73.2739 
 579   0.0000       2.696101        73.3646 
 580   0.0000       2.712403        73.8082 
 581   0.0000       2.714683        73.8703 
 582   0.0000       2.722514        74.0834 
 583   0.0000       2.734814        74.4181 
 584   0.0000       2.741769        74.6073 
 585   0.0000       2.748611        74.7935 
 586   0.0000       2.779210        75.6261 
 587   0.0000       2.782790        75.7236 
 588   0.0000       2.788084        75.8676 
 589   0.0000       2.790172        75.9245 
 590   0.0000       2.794035        76.0296 
 591   0.0000       2.795324        76.0646 
 592   0.0000       2.809759        76.4574 
 593   0.0000       2.810776        76.4851 
 594   0.0000       2.854577        77.6770 
 595   0.0000       2.859006        77.7975 
 596   0.0000       2.863482        77.9193 
 597   0.0000       2.867683        78.0336 
 598   0.0000       2.871560        78.1391 
 599   0.0000       2.872842        78.1740 
 600   0.0000       2.882332        78.4323 
 601   0.0000       2.884719        78.4972 
 602   0.0000       2.888077        78.5886 
 603   0.0000       2.890382        78.6513 
 604   0.0000       2.899107        78.8887 
 605   0.0000       2.901866        78.9638 
 606   0.0000       2.912776        79.2607 
 607   0.0000       2.917529        79.3900 
 608   0.0000       2.927506        79.6615 
 609   0.0000       2.929116        79.7053 
 610   0.0000       2.931732        79.7765 
 611   0.0000       2.934020        79.8388 
 612   0.0000       2.942339        80.0651 
 613   0.0000       2.948360        80.2290 
 614   0.0000       2.968929        80.7887 
 615   0.0000       2.971318        80.8537 
 616   0.0000       2.979208        81.0684 
 617   0.0000       2.982636        81.1616 
 618   0.0000       2.990128        81.3655 
 619   0.0000       2.994442        81.4829 
 620   0.0000       2.998436        81.5916 
 621   0.0000       3.005189        81.7754 
 622   0.0000       3.019370        82.1612 
 623   0.0000       3.027686        82.3875 
 624   0.0000       3.051177        83.0268 
 625   0.0000       3.056083        83.1602 
 626   0.0000       3.058480        83.2255 
 627   0.0000       3.060944        83.2925 
 628   0.0000       3.067811        83.4794 
 629   0.0000       3.079103        83.7867 
 630   0.0000       3.081205        83.8438 
 631   0.0000       3.085904        83.9717 
 632   0.0000       3.094903        84.2166 
 633   0.0000       3.097665        84.2917 
 634   0.0000       3.101847        84.4056 
 635   0.0000       3.108934        84.5984 
 636   0.0000       3.137200        85.3676 
 637   0.0000       3.141989        85.4979 
 638   0.0000       3.149703        85.7078 
 639   0.0000       3.154204        85.8303 
 640   0.0000       3.172227        86.3207 
 641   0.0000       3.173405        86.3527 
 642   0.0000       3.177168        86.4551 
 643   0.0000       3.180530        86.5466 
 644   0.0000       3.188622        86.7668 
 645   0.0000       3.196149        86.9716 
 646   0.0000       3.201278        87.1112 
 647   0.0000       3.204785        87.2066 
 648   0.0000       3.208830        87.3167 
 649   0.0000       3.214009        87.4576 
 650   0.0000       3.227572        87.8267 
 651   0.0000       3.231235        87.9264 
 652   0.0000       3.238521        88.1246 
 653   0.0000       3.242911        88.2441 
 654   0.0000       3.262406        88.7746 
 655   0.0000       3.264394        88.8287 
 656   0.0000       3.275763        89.1380 
 657   0.0000       3.277855        89.1950 
 658   0.0000       3.285780        89.4106 
 659   0.0000       3.292849        89.6030 
 660   0.0000       3.295182        89.6665 
 661   0.0000       3.297570        89.7314 
 662   0.0000       3.303150        89.8833 
 663   0.0000       3.311556        90.1120 
 664   0.0000       3.315486        90.2190 
 665   0.0000       3.318259        90.2944 
 666   0.0000       3.338315        90.8402 
 667   0.0000       3.340584        90.9019 
 668   0.0000       3.345986        91.0489 
 669   0.0000       3.351999        91.2125 
 670   0.0000       3.359263        91.4102 
 671   0.0000       3.366718        91.6131 
 672   0.0000       3.370883        91.7264 
 673   0.0000       3.371678        91.7480 
 674   0.0000       3.374264        91.8184 
 675   0.0000       3.376592        91.8817 
 676   0.0000       3.377180        91.8977 
 677   0.0000       3.387153        92.1691 
 678   0.0000       3.394064        92.3572 
 679   0.0000       3.395858        92.4060 
 680   0.0000       3.407040        92.7103 
 681   0.0000       3.409415        92.7749 
 682   0.0000       3.417382        92.9917 
 683   0.0000       3.422454        93.1297 
 684   0.0000       3.434266        93.4511 
 685   0.0000       3.435511        93.4850 
 686   0.0000       3.451146        93.9105 
 687   0.0000       3.453948        93.9867 
 688   0.0000       3.462597        94.2220 
 689   0.0000       3.465993        94.3145 
 690   0.0000       3.471229        94.4569 
 691   0.0000       3.476980        94.6134 
 692   0.0000       3.483094        94.7798 
 693   0.0000       3.486467        94.8716 
 694   0.0000       3.501886        95.2912 
 695   0.0000       3.508352        95.4671 
 696   0.0000       3.509496        95.4982 
 697   0.0000       3.520814        95.8062 
 698   0.0000       3.540899        96.3528 
 699   0.0000       3.545517        96.4784 
 700   0.0000       3.555650        96.7542 
 701   0.0000       3.563219        96.9601 
 702   0.0000       3.575335        97.2898 
 703   0.0000       3.577820        97.3574 
 704   0.0000       3.588428        97.6461 
 705   0.0000       3.592738        97.7634 
 706   0.0000       3.603545        98.0574 
 707   0.0000       3.608011        98.1790 
 708   0.0000       3.610716        98.2526 
 709   0.0000       3.613711        98.3341 
 710   0.0000       3.617425        98.4352 
 711   0.0000       3.622330        98.5686 
 712   0.0000       3.628018        98.7234 
 713   0.0000       3.633072        98.8609 
 714   0.0000       3.640390        99.0601 
 715   0.0000       3.644465        99.1709 
 716   0.0000       3.651087        99.3511 
 717   0.0000       3.653953        99.4291 
 718   0.0000       3.665268        99.7370 
 719   0.0000       3.670750        99.8862 
 720   0.0000       3.675261       100.0089 
 721   0.0000       3.677236       100.0627 
 722   0.0000       3.700497       100.6956 
 723   0.0000       3.704959       100.8171 
 724   0.0000       3.708890       100.9240 
 725   0.0000       3.715067       101.0921 
 726   0.0000       3.720210       101.2321 
 727   0.0000       3.725153       101.3666 
 728   0.0000       3.744853       101.9026 
 729   0.0000       3.748608       102.0048 
 730   0.0000       3.750778       102.0639 
 731   0.0000       3.758488       102.2736 
 732   0.0000       3.774892       102.7200 
 733   0.0000       3.777780       102.7986 
 734   0.0000       3.780594       102.8752 
 735   0.0000       3.783790       102.9622 
 736   0.0000       3.810934       103.7008 
 737   0.0000       3.814957       103.8103 
 738   0.0000       3.828518       104.1793 
 739   0.0000       3.832684       104.2926 
 740   0.0000       3.838119       104.4405 
 741   0.0000       3.840728       104.5115 
 742   0.0000       3.848876       104.7333 
 743   0.0000       3.855001       104.8999 
 744   0.0000       3.859858       105.0321 
 745   0.0000       3.864218       105.1507 
 746   0.0000       3.883574       105.6774 
 747   0.0000       3.886928       105.7687 
 748   0.0000       3.889855       105.8483 
 749   0.0000       3.892964       105.9329 
 750   0.0000       3.898425       106.0815 
 751   0.0000       3.902460       106.1913 
 752   0.0000       3.925795       106.8263 
 753   0.0000       3.928721       106.9059 
 754   0.0000       3.988462       108.5316 
 755   0.0000       3.998354       108.8008 
 756   0.0000       4.021901       109.4415 
 757   0.0000       4.028512       109.6214 
 758   0.0000       4.032929       109.7416 
 759   0.0000       4.043263       110.0228 
 760   0.0000       4.052941       110.2861 
 761   0.0000       4.058850       110.4469 
 762   0.0000       4.080465       111.0351 
 763   0.0000       4.086252       111.1926 
 764   0.0000       4.107229       111.7634 
 765   0.0000       4.110319       111.8475 
 766   0.0000       4.125863       112.2704 
 767   0.0000       4.129324       112.3646 
 768   0.0000       4.207533       114.4928 
 769   0.0000       4.221645       114.8768 
 770   0.0000       4.283731       116.5662 
 771   0.0000       4.289418       116.7210 
 772   0.0000       4.291631       116.7812 
 773   0.0000       4.293018       116.8189 
 774   0.0000       4.297403       116.9383 
 775   0.0000       4.298421       116.9660 
 776   0.0000       4.299859       117.0051 
 777   0.0000       4.300834       117.0316 
 778   0.0000       4.300973       117.0354 
 779   0.0000       4.301913       117.0610 
 780   0.0000       4.305845       117.1680 
 781   0.0000       4.307285       117.2072 
 782   0.0000       4.320370       117.5632 
 783   0.0000       4.327890       117.7679 
 784   0.0000       4.367924       118.8573 
 785   0.0000       4.372049       118.9695 
 786   0.0000       4.378970       119.1578 
 787   0.0000       4.385824       119.3443 
 788   0.0000       4.404475       119.8519 
 789   0.0000       4.410141       120.0060 
 790   0.0000       4.438129       120.7676 
 791   0.0000       4.442307       120.8813 
 792   0.0000       4.443738       120.9203 
 793   0.0000       4.448566       121.0516 
 794   0.0000       4.478446       121.8647 
 795   0.0000       4.486450       122.0825 
 796   0.0000       4.502182       122.5106 
 797   0.0000       4.507731       122.6616 
 798   0.0000       4.516673       122.9049 
 799   0.0000       4.520139       122.9992 
 800   0.0000       4.541219       123.5728 
 801   0.0000       4.543725       123.6410 
 802   0.0000       4.553794       123.9150 
 803   0.0000       4.555721       123.9675 
 804   0.0000       4.560163       124.0883 
 805   0.0000       4.566213       124.2530 
 806   0.0000       4.575351       124.5016 
 807   0.0000       4.581272       124.6627 
 808   0.0000       4.637379       126.1895 
 809   0.0000       4.639756       126.2542 
 810   0.0000       4.640933       126.2862 
 811   0.0000       4.643296       126.3505 
 812   0.0000       4.661165       126.8368 
 813   0.0000       4.663518       126.9008 
 814   0.0000       4.786256       130.2407 
 815   0.0000       4.792921       130.4220 
 816   0.0000       4.795973       130.5051 
 817   0.0000       4.800723       130.6343 
 818   0.0000       4.809562       130.8748 
 819   0.0000       4.812729       130.9610 
 820   0.0000       4.843600       131.8011 
 821   0.0000       4.847091       131.8961 
 822   0.0000       4.855389       132.1219 
 823   0.0000       4.864189       132.3613 
 824   0.0000       4.896234       133.2333 
 825   0.0000       4.897329       133.2631 
 826   0.0000       4.920837       133.9028 
 827   0.0000       4.925857       134.0394 
 828   0.0000       4.927092       134.0730 
 829   0.0000       4.931134       134.1830 
 830   0.0000       4.934163       134.2654 
 831   0.0000       4.941844       134.4744 
 832   0.0000       4.943173       134.5106 
 833   0.0000       4.950335       134.7055 
 834   0.0000       4.952417       134.7621 
 835   0.0000       4.959092       134.9437 
 836   0.0000       4.968605       135.2026 
 837   0.0000       4.971058       135.2694 
 838   0.0000       4.991478       135.8250 
 839   0.0000       4.993222       135.8725 
 840   0.0000       5.001203       136.0896 
 841   0.0000       5.002571       136.1269 
 842   0.0000       5.032483       136.9408 
 843   0.0000       5.037568       137.0792 
 844   0.0000       5.055664       137.5716 
 845   0.0000       5.060257       137.6966 
 846   0.0000       5.061001       137.7168 
 847   0.0000       5.065562       137.8410 
 848   0.0000       5.079443       138.2187 
 849   0.0000       5.081009       138.2613 
 850   0.0000       5.101710       138.8246 
 851   0.0000       5.105559       138.9293 
 852   0.0000       5.167993       140.6283 
 853   0.0000       5.174943       140.8174 
 854   0.0000       5.203792       141.6024 
 855   0.0000       5.210373       141.7815 
 856   0.0000       5.223138       142.1288 
 857   0.0000       5.228060       142.2628 
 858   0.0000       5.237209       142.5117 
 859   0.0000       5.244088       142.6989 
 860   0.0000       5.253987       142.9683 
 861   0.0000       5.259440       143.1166 
 862   0.0000       5.272203       143.4639 
 863   0.0000       5.277822       143.6168 
 864   0.0000       5.290566       143.9636 
 865   0.0000       5.296012       144.1118 
 866   0.0000       5.432687       147.8309 
 867   0.0000       5.440929       148.0552 
 868   0.0000       5.525900       150.3674 
 869   0.0000       5.527947       150.4231 
 870   0.0000       5.529364       150.4616 
 871   0.0000       5.536456       150.6546 
 872   0.0000       5.552269       151.0849 
 873   0.0000       5.560145       151.2993 
 874   0.0000       5.561873       151.3462 
 875   0.0000       5.570819       151.5897 
 876   0.0000       5.577628       151.7750 
 877   0.0000       5.578853       151.8083 
 878   0.0000       5.589081       152.0866 
 879   0.0000       5.591119       152.1421 
 880   0.0000       5.624935       153.0623 
 881   0.0000       5.630971       153.2265 
 882   0.0000       5.676163       154.4563 
 883   0.0000       5.678213       154.5120 
 884   0.0000       5.696650       155.0137 
 885   0.0000       5.700450       155.1171 
 886   0.0000       5.747232       156.3901 
 887   0.0000       5.748859       156.4344 
 888   0.0000       5.819527       158.3574 
 889   0.0000       5.828853       158.6111 
 890   0.0000       5.875269       159.8742 
 891   0.0000       5.884196       160.1171 
 892   0.0000       5.954713       162.0360 
 893   0.0000       5.960607       162.1964 
 894   0.0000       5.983429       162.8174 
 895   0.0000       5.984606       162.8494 
 896   0.0000       6.041362       164.3938 
 897   0.0000       6.044206       164.4712 
 898   0.0000       6.051856       164.6794 
 899   0.0000       6.052985       164.7101 
 900   0.0000       6.059994       164.9008 
 901   0.0000       6.061279       164.9358 
 902   0.0000       6.079154       165.4222 
 903   0.0000       6.086854       165.6317 
 904   0.0000       6.108828       166.2297 
 905   0.0000       6.110059       166.2632 
 906   0.0000       6.111556       166.3039 
 907   0.0000       6.112611       166.3326 
 908   0.0000       6.182933       168.2461 
 909   0.0000       6.207458       168.9135 
 910   0.0000       6.269003       170.5883 
 911   0.0000       6.270783       170.6367 
 912   0.0000       6.445602       175.3937 
 913   0.0000       6.446763       175.4253 
 914   0.0000       6.533387       177.7825 
 915   0.0000       6.539085       177.9375 
 916   0.0000       6.656156       181.1232 
 917   0.0000       6.657482       181.1593 
 918   0.0000       9.487685       258.1730 
 919   0.0000       9.548503       259.8280 
 920   0.0000       9.556200       260.0374 
 921   0.0000       9.564762       260.2704 
 922   0.0000       9.609990       261.5011 
 923   0.0000       9.615225       261.6436 
 924   0.0000       9.966863       271.2121 
 925   0.0000       9.976189       271.4659 
 926   0.0000      10.001495       272.1545 
 927   0.0000      10.009486       272.3720 
 928   0.0000      10.067947       273.9628 
 929   0.0000      10.078194       274.2416 
 930   0.0000      10.091209       274.5958 
 931   0.0000      10.097814       274.7755 
 932   0.0000      10.143170       276.0097 
 933   0.0000      10.149591       276.1844 
 934   0.0000      10.269107       279.4366 
 935   0.0000      10.276942       279.6498 
 936   0.0000      20.597853       560.4961 
 937   0.0000      20.604337       560.6725 
 938   0.0000      20.794519       565.8476 
 939   0.0000      20.840889       567.1094 
 940   0.0000      21.175364       576.2110 
 941   0.0000      21.183424       576.4303 
 942   0.0000      23.425405       637.4377 
 943   0.0000      23.428746       637.5286 
 944   0.0000      23.496521       639.3728 
 945   0.0000      23.505792       639.6251 
 946   0.0000      23.970261       652.2640 
 947   0.0000      23.977189       652.4525 
 948   0.0000      23.978544       652.4894 
 949   0.0000      23.982266       652.5906 
 950   0.0000      24.078427       655.2073 
 951   0.0000      24.089445       655.5071 
 952   0.0000      24.252439       659.9424 
 953   0.0000      24.253839       659.9805 
 954   0.0000      24.589412       669.1119 
 955   0.0000      24.595970       669.2904 
 956   0.0000      24.760594       673.7700 
 957   0.0000      24.762052       673.8097 
 958   0.0000      33.348532       907.4597 
 959   0.0000      33.352012       907.5544 
 960   0.0000      33.387627       908.5235 
 961   0.0000      33.416714       909.3150 
 962   0.0000      33.421210       909.4374 
 963   0.0000      33.422809       909.4809 
 964   0.0000      33.448340       910.1756 
 965   0.0000      33.464159       910.6061 

                    ********************************
                    * MULLIKEN POPULATION ANALYSIS *
                    ********************************

-----------------------
MULLIKEN ATOMIC CHARGES
-----------------------
   0 C :   -0.158556
   1 C :    0.128294
   2 S :    0.142121
   3 S :    0.146147
   4 C :    0.153099
   5 C :    0.124074
   6 C :    0.146645
   7 N :   -0.310988
   8 S :    0.334208
   9 C :   -0.116256
  10 N :   -0.121069
  11 C :   -0.118766
  12 N :   -0.118133
  13 C :   -0.109824
  14 N :   -0.128388
  15 C :   -0.162102
  16 C :    0.134787
  17 S :    0.145463
  18 S :    0.150513
  19 C :    0.154564
  20 C :    0.130904
  21 C :    0.158555
  22 N :   -0.308604
  23 S :    0.310141
  24 C :   -0.115899
  25 N :   -0.118304
  26 C :   -0.117754
  27 N :   -0.116422
  28 C :   -0.081858
  29 N :   -0.156592
Sum of atomic charges:   -0.0000000

--------------------------------
MULLIKEN REDUCED ORBITAL CHARGES
--------------------------------
  0 C s       :     3.262803  s :     3.262803
      pz      :     0.948819  p :     2.704941
      px      :     0.866527
      py      :     0.889595
      dz2     :     0.021319  d :     0.179537
      dxz     :     0.030268
      dyz     :     0.029044
      dx2y2   :     0.048596
      dxy     :     0.050310
      f0      :     0.001350  f :     0.011275
      f+1     :     0.001769
      f-1     :     0.001075
      f+2     :     0.001395
      f-2     :     0.001604
      f+3     :     0.001734
      f-3     :     0.002349
  1 C s       :     3.100083  s :     3.100083
      pz      :     0.877594  p :     2.548585
      px      :     0.832239
      py      :     0.838752
      dz2     :     0.023888  d :     0.208167
      dxz     :     0.027922
      dyz     :     0.039262
      dx2y2   :     0.046326
      dxy     :     0.070768
      f0      :     0.001425  f :     0.014872
      f+1     :     0.003011
      f-1     :     0.001124
      f+2     :     0.001868
      f-2     :     0.001842
      f+3     :     0.002251
      f-3     :     0.003351
  2 S s       :     5.785623  s :     5.785623
      pz      :     3.601639  p :     9.890223
      px      :     2.964149
      py      :     3.324435
      dz2     :     0.023423  d :     0.165016
      dxz     :     0.040413
      dyz     :     0.021228
      dx2y2   :     0.041201
      dxy     :     0.038749
      f0      :     0.001869  f :     0.017017
      f+1     :     0.002154
      f-1     :     0.001369
      f+2     :     0.003135
      f-2     :     0.002665
      f+3     :     0.003733
      f-3     :     0.002091
  3 S s       :     5.787047  s :     5.787047
      pz      :     3.785871  p :     9.893959
      px      :     2.864707
      py      :     3.243381
      dz2     :     0.022773  d :     0.156546
      dxz     :     0.020991
      dyz     :     0.016973
      dx2y2   :     0.051979
      dxy     :     0.043830
      f0      :     0.001817  f :     0.016301
      f+1     :     0.002280
      f-1     :     0.001559
      f+2     :     0.001742
      f-2     :     0.001469
      f+3     :     0.004088
      f-3     :     0.003346
  4 C s       :     3.106771  s :     3.106771
      pz      :     0.968953  p :     2.567308
      px      :     0.739272
      py      :     0.859083
      dz2     :     0.014170  d :     0.163441
      dxz     :     0.018910
      dyz     :     0.029333
      dx2y2   :     0.051251
      dxy     :     0.049778
      f0      :     0.001532  f :     0.009381
      f+1     :     0.000977
      f-1     :     0.001488
      f+2     :     0.000714
      f-2     :     0.001155
      f+3     :     0.001777
      f-3     :     0.001738
  5 C s       :     3.115085  s :     3.115085
      pz      :     0.948989  p :     2.586975
      px      :     0.843292
      py      :     0.794694
      dz2     :     0.009832  d :     0.164480
      dxz     :     0.032421
      dyz     :     0.027338
      dx2y2   :     0.050046
      dxy     :     0.044843
      f0      :     0.001659  f :     0.009386
      f+1     :     0.000954
      f-1     :     0.001292
      f+2     :     0.000988
      f-2     :     0.001074
      f+3     :     0.001592
      f-3     :     0.001825
  6 C s       :     3.189294  s :     3.189294
      pz      :     0.995449  p :     2.509879
      px      :     0.882135
      py      :     0.632295
      dz2     :     0.016251  d :     0.143973
      dxz     :     0.023419
      dyz     :     0.023923
      dx2y2   :     0.041065
      dxy     :     0.039316
      f0      :     0.001281  f :     0.010209
      f+1     :     0.001544
      f-1     :     0.001355
      f+2     :     0.000994
      f-2     :     0.001237
      f+3     :     0.001640
      f-3     :     0.002160
  7 N s       :     3.624128  s :     3.624128
      pz      :     1.165846  p :     3.603688
      px      :     1.188177
      py      :     1.249665
      dz2     :     0.012600  d :     0.078990
      dxz     :     0.013959
      dyz     :     0.011712
      dx2y2   :     0.025418
      dxy     :     0.015301
      f0      :     0.000444  f :     0.004181
      f+1     :     0.000887
      f-1     :     0.000368
      f+2     :     0.000659
      f-2     :     0.000385
      f+3     :     0.000746
      f-3     :     0.000693
  8 S s       :     5.816043  s :     5.816043
      pz      :     3.573489  p :     9.594529
      px      :     3.253792
      py      :     2.767248
      dz2     :     0.026212  d :     0.228424
      dxz     :     0.024572
      dyz     :     0.053209
      dx2y2   :     0.052358
      dxy     :     0.072074
      f0      :     0.002503  f :     0.026796
      f+1     :     0.002217
      f-1     :     0.002932
      f+2     :     0.003085
      f-2     :     0.003966
      f+3     :     0.005176
      f-3     :     0.006917
  9 C s       :     3.185439  s :     3.185439
      pz      :     0.930004  p :     2.799634
      px      :     0.922391
      py      :     0.947239
      dz2     :     0.008408  d :     0.112764
      dxz     :     0.039993
      dyz     :     0.002928
      dx2y2   :     0.028445
      dxy     :     0.032990
      f0      :     0.002650  f :     0.018420
      f+1     :     0.001664
      f-1     :     0.000495
      f+2     :     0.003658
      f-2     :     0.000699
      f+3     :     0.003887
      f-3     :     0.005367
 10 N s       :     3.741310  s :     3.741310
      pz      :     1.023722  p :     3.320468
      px      :     1.269811
      py      :     1.026935
      dz2     :     0.003193  d :     0.056341
      dxz     :     0.020886
      dyz     :     0.000855
      dx2y2   :     0.010826
      dxy     :     0.020581
      f0      :     0.000418  f :     0.002950
      f+1     :     0.000245
      f-1     :     0.000077
      f+2     :     0.000609
      f-2     :     0.000112
      f+3     :     0.000610
      f-3     :     0.000879
 11 C s       :     3.186857  s :     3.186857
      pz      :     0.928722  p :     2.801328
      px      :     0.938705
      py      :     0.933901
      dz2     :     0.014947  d :     0.112147
      dxz     :     0.011310
      dyz     :     0.026866
      dx2y2   :     0.031759
      dxy     :     0.027265
      f0      :     0.001651  f :     0.018434
      f+1     :     0.001355
      f-1     :     0.002528
      f+2     :     0.001475
      f-2     :     0.003169
      f+3     :     0.002718
      f-3     :     0.005538
 12 N s       :     3.742800  s :     3.742800
      pz      :     1.043056  p :     3.315979
      px      :     1.094254
      py      :     1.178668
      dz2     :     0.005938  d :     0.056404
      dxz     :     0.006987
      dyz     :     0.013206
      dx2y2   :     0.019618
      dxy     :     0.010655
      f0      :     0.000256  f :     0.002950
      f+1     :     0.000207
      f-1     :     0.000395
      f+2     :     0.000234
      f-2     :     0.000514
      f+3     :     0.000401
      f-3     :     0.000943
 13 C s       :     3.186611  s :     3.186611
      pz      :     0.920169  p :     2.794744
      px      :     0.950944
      py      :     0.923632
      dz2     :     0.006420  d :     0.110251
      dxz     :     0.000685
      dyz     :     0.045155
      dx2y2   :     0.018078
      dxy     :     0.039913
      f0      :     0.002599  f :     0.018219
      f+1     :     0.000466
      f-1     :     0.001675
      f+2     :     0.004077
      f-2     :     0.000260
      f+3     :     0.006133
      f-3     :     0.003008
 14 N s       :     3.742405  s :     3.742405
      pz      :     1.037084  p :     3.327077
      px      :     1.015677
      py      :     1.274316
      dz2     :     0.003191  d :     0.055980
      dxz     :     0.000327
      dyz     :     0.021270
      dx2y2   :     0.009571
      dxy     :     0.021620
      f0      :     0.000420  f :     0.002926
      f+1     :     0.000075
      f-1     :     0.000252
      f+2     :     0.000671
      f-2     :     0.000040
      f+3     :     0.001023
      f-3     :     0.000445
 15 C s       :     3.262683  s :     3.262683
      pz      :     0.891905  p :     2.708581
[...]
      dxy     :     0.159200
      f0      :     0.004345  f :     0.051515
      f+1     :     0.004762
      f-1     :     0.004643
      f+2     :     0.006763
      f-2     :     0.006129
      f+3     :     0.010657
      f-3     :     0.014216
  5 C s       :     2.770212  s :     2.770212
      pz      :     0.899346  p :     2.959204
      px      :     1.013819
      py      :     1.046039
      dz2     :     0.043340  d :     0.548891
      dxz     :     0.096496
      dyz     :     0.084638
      dx2y2   :     0.162317
      dxy     :     0.162100
      f0      :     0.004604  f :     0.051602
      f+1     :     0.004211
      f-1     :     0.004995
      f+2     :     0.007033
      f-2     :     0.006410
      f+3     :     0.009002
      f-3     :     0.015347
  6 C s       :     2.770896  s :     2.770896
      pz      :     0.934606  p :     2.989886
      px      :     1.044471
      py      :     1.010809
      dz2     :     0.066104  d :     0.549124
      dxz     :     0.085803
      dyz     :     0.085258
      dx2y2   :     0.171689
      dxy     :     0.140270
      f0      :     0.004357  f :     0.054968
      f+1     :     0.003963
      f-1     :     0.006722
      f+2     :     0.006743
      f-2     :     0.007902
      f+3     :     0.012870
      f-3     :     0.012411
  7 N s       :     3.181928  s :     3.181928
      pz      :     1.138347  p :     3.716516
      px      :     1.285269
      py      :     1.292901
      dz2     :     0.028566  d :     0.215781
      dxz     :     0.036826
      dyz     :     0.032881
      dx2y2   :     0.059655
      dxy     :     0.057853
      f0      :     0.001459  f :     0.017246
      f+1     :     0.002042
      f-1     :     0.001017
      f+2     :     0.003176
      f-2     :     0.001736
      f+3     :     0.003501
      f-3     :     0.004315
  8 S s       :     5.221282  s :     5.221282
      pz      :     3.449842  p :     9.517981
      px      :     3.262298
      py      :     2.805841
      dz2     :     0.048779  d :     0.395467
      dxz     :     0.039044
      dyz     :     0.083645
      dx2y2   :     0.109363
      dxy     :     0.114636
      f0      :     0.005091  f :     0.076853
      f+1     :     0.004803
      f-1     :     0.008309
      f+2     :     0.008765
      f-2     :     0.010080
      f+3     :     0.017171
      f-3     :     0.022634
  9 C s       :     2.806146  s :     2.806146
      pz      :     0.858979  p :     2.865742
      px      :     1.154160
      py      :     0.852602
      dz2     :     0.041695  d :     0.434982
      dxz     :     0.132369
      dyz     :     0.007831
      dx2y2   :     0.122340
      dxy     :     0.130746
      f0      :     0.006558  f :     0.059916
      f+1     :     0.008923
      f-1     :     0.001339
      f+2     :     0.009433
      f-2     :     0.001798
      f+3     :     0.016007
      f-3     :     0.015859
 10 N s       :     3.311336  s :     3.311336
      pz      :     0.989782  p :     3.465125
      px      :     1.469926
      py      :     1.005416
      dz2     :     0.011672  d :     0.116902
      dxz     :     0.033844
      dyz     :     0.001401
      dx2y2   :     0.034445
      dxy     :     0.035540
      f0      :     0.001621  f :     0.015205
      f+1     :     0.002327
      f-1     :     0.000355
      f+2     :     0.002344
      f-2     :     0.000429
      f+3     :     0.004018
      f-3     :     0.004110
 11 C s       :     2.806247  s :     2.806247
      pz      :     0.877415  p :     2.866618
      px      :     0.950683
      py      :     1.038520
      dz2     :     0.053667  d :     0.432951
      dxz     :     0.046797
      dyz     :     0.095448
      dx2y2   :     0.122111
      dxy     :     0.114928
      f0      :     0.005647  f :     0.059916
      f+1     :     0.004001
      f-1     :     0.007637
      f+2     :     0.004003
      f-2     :     0.010738
      f+3     :     0.013486
      f-3     :     0.014404
 12 N s       :     3.311440  s :     3.311440
      pz      :     1.023402  p :     3.462357
      px      :     1.136520
      py      :     1.302434
      dz2     :     0.013925  d :     0.117105
      dxz     :     0.012778
      dyz     :     0.024431
      dx2y2   :     0.033618
      dxy     :     0.032354
      f0      :     0.001434  f :     0.015226
      f+1     :     0.000970
      f-1     :     0.001953
      f+2     :     0.000997
      f-2     :     0.002689
      f+3     :     0.003496
      f-3     :     0.003687
 13 C s       :     2.810469  s :     2.810469
      pz      :     0.851896  p :     2.868566
      px      :     0.854297
      py      :     1.162374
      dz2     :     0.040119  d :     0.436063
      dxz     :     0.002693
      dyz     :     0.141749
      dx2y2   :     0.118320
      dxy     :     0.133181
      f0      :     0.006581  f :     0.059525
      f+1     :     0.001182
      f-1     :     0.009118
      f+2     :     0.010526
      f-2     :     0.000675
      f+3     :     0.016210
      f-3     :     0.015233
 14 N s       :     3.311685  s :     3.311685
      pz      :     1.001509  p :     3.473195
      px      :     0.988273
      py      :     1.483413
      dz2     :     0.011634  d :     0.116156
      dxz     :     0.000515
      dyz     :     0.034187
      dx2y2   :     0.034436
      dxy     :     0.035384
      f0      :     0.001601  f :     0.015118
      f+1     :     0.000292
      f-1     :     0.002393
      f+2     :     0.002585
      f-2     :     0.000154
      f+3     :     0.004123
      f-3     :     0.003969
 15 C s       :     2.773156  s :     2.773156
      pz      :     0.983457  p :     2.985212
      px      :     1.015353
      py      :     0.986402
      dz2     :     0.116760  d :     0.558788
      dxz     :     0.103704
      dyz     :     0.104590
      dx2y2   :     0.110577
      dxy     :     0.123158
      f0      :     0.006874  f :     0.057386
      f+1     :     0.006905
      f-1     :     0.008907
      f+2     :     0.009239
      f-2     :     0.007321
      f+3     :     0.009889
      f-3     :     0.008251
 16 C s       :     2.791175  s :     2.791175
      pz      :     0.951306  p :     2.916148
      px      :     1.007147
      py      :     0.957695
      dz2     :     0.142987  d :     0.697367
      dxz     :     0.140779
      dyz     :     0.111704
      dx2y2   :     0.138422
      dxy     :     0.163475
      f0      :     0.007788  f :     0.080072
      f+1     :     0.008228
      f-1     :     0.013496
      f+2     :     0.014743
      f-2     :     0.010326
      f+3     :     0.014128
      f-3     :     0.011363
 17 S s       :     5.189069  s :     5.189069
      pz      :     3.469616  p :     9.723270
      px      :     3.224554
      py      :     3.029100
      dz2     :     0.037419  d :     0.289323
      dxz     :     0.048629
      dyz     :     0.054831
      dx2y2   :     0.059353
      dxy     :     0.089090
      f0      :     0.004306  f :     0.046640
      f+1     :     0.004087
      f-1     :     0.005003
      f+2     :     0.004791
      f-2     :     0.008676
      f+3     :     0.008864
      f-3     :     0.010911
 18 S s       :     5.202361  s :     5.202361
      pz      :     3.349403  p :     9.726297
      px      :     3.455647
      py      :     2.921246
      dz2     :     0.052942  d :     0.277202
      dxz     :     0.047608
      dyz     :     0.055444
      dx2y2   :     0.071018
      dxy     :     0.050190
      f0      :     0.004812  f :     0.044746
      f+1     :     0.006385
      f-1     :     0.006089
      f+2     :     0.007173
      f-2     :     0.005906
      f+3     :     0.007093
      f-3     :     0.007287
 19 C s       :     2.768421  s :     2.768421
      pz      :     0.908594  p :     2.963068
      px      :     1.054645
      py      :     0.999828
      dz2     :     0.051955  d :     0.546357
      dxz     :     0.100203
      dyz     :     0.065936
      dx2y2   :     0.158155
      dxy     :     0.170108
      f0      :     0.004149  f :     0.051524
      f+1     :     0.004853
      f-1     :     0.004852
      f+2     :     0.007187
      f-2     :     0.005532
      f+3     :     0.013999
      f-3     :     0.010952
 20 C s       :     2.769959  s :     2.769959
      pz      :     0.894210  p :     2.957275
      px      :     1.046612
      py      :     1.016453
      dz2     :     0.048519  d :     0.548687
      dxz     :     0.079352
      dyz     :     0.078339
      dx2y2   :     0.169674
      dxy     :     0.172803
      f0      :     0.004379  f :     0.051625
      f+1     :     0.005025
      f-1     :     0.004265
      f+2     :     0.006389
      f-2     :     0.006290
      f+3     :     0.015697
      f-3     :     0.009581
 21 C s       :     2.770653  s :     2.770653
      pz      :     0.983320  p :     2.989682
      px      :     0.988337
      py      :     1.018025
      dz2     :     0.105748  d :     0.547190
      dxz     :     0.119256
      dyz     :     0.076710
      dx2y2   :     0.123710
      dxy     :     0.121766
      f0      :     0.007137  f :     0.054841
      f+1     :     0.008610
      f-1     :     0.005310
      f+2     :     0.008874
      f-2     :     0.007635
      f+3     :     0.007754
      f-3     :     0.009522
 22 N s       :     3.182936  s :     3.182936
      pz      :     1.128026  p :     3.715607
      px      :     1.325380
      py      :     1.262201
      dz2     :     0.048481  d :     0.215130
      dxz     :     0.049343
      dyz     :     0.036991
      dx2y2   :     0.034710
      dxy     :     0.045605
      f0      :     0.001667  f :     0.017208
      f+1     :     0.002573
      f-1     :     0.002338
      f+2     :     0.003190
      f-2     :     0.002464
      f+3     :     0.002249
      f-3     :     0.002727
 23 S s       :     5.221844  s :     5.221844
      pz      :     3.327355  p :     9.563914
      px      :     2.926955
      py      :     3.309604
      dz2     :     0.064242  d :     0.394048
      dxz     :     0.100990
      dyz     :     0.044280
      dx2y2   :     0.082505
      dxy     :     0.102031
      f0      :     0.008917  f :     0.076480
      f+1     :     0.012152
      f-1     :     0.006325
      f+2     :     0.012036
      f-2     :     0.013815
      f+3     :     0.012588
      f-3     :     0.010647
 24 C s       :     2.805651  s :     2.805651
      pz      :     0.852473  p :     2.866647
      px      :     0.859336
      py      :     1.154837
      dz2     :     0.040617  d :     0.433999
      dxz     :     0.007716
      dyz     :     0.134792
      dx2y2   :     0.122645
      dxy     :     0.128229
      f0      :     0.006711  f :     0.059933
      f+1     :     0.001380
      f-1     :     0.008928
      f+2     :     0.009446
      f-2     :     0.001704
      f+3     :     0.015781
      f-3     :     0.015983
 25 N s       :     3.311498  s :     3.311498
      pz      :     0.996345  p :     3.461767
      px      :     0.995830
      py      :     1.469593
      dz2     :     0.011580  d :     0.117142
      dxz     :     0.001385
      dyz     :     0.033512
      dx2y2   :     0.034535
      dxy     :     0.036130
      f0      :     0.001624  f :     0.015230
      f+1     :     0.000369
      f-1     :     0.002313
      f+2     :     0.002292
      f-2     :     0.000425
      f+3     :     0.004159
      f-3     :     0.004047
 26 C s       :     2.805720  s :     2.805720
      pz      :     0.885313  p :     2.867005
      px      :     1.027481
      py      :     0.954212
      dz2     :     0.056793  d :     0.431742
      dxz     :     0.092212
      dyz     :     0.051141
      dx2y2   :     0.119932
      dxy     :     0.111664
      f0      :     0.005339  f :     0.059957
      f+1     :     0.007983
      f-1     :     0.004197
      f+2     :     0.004457
      f-2     :     0.011230
      f+3     :     0.013788
      f-3     :     0.012963
 27 N s       :     3.311567  s :     3.311567
      pz      :     1.033900  p :     3.459431
      px      :     1.290816
      py      :     1.134715
      dz2     :     0.014901  d :     0.117270
      dxz     :     0.024736
      dyz     :     0.013865
      dx2y2   :     0.032410
      dxy     :     0.031357
      f0      :     0.001376  f :     0.015250
      f+1     :     0.002012
      f-1     :     0.001037
      f+2     :     0.001231
      f-2     :     0.002874
      f+3     :     0.003457
      f-3     :     0.003264
 28 C s       :     2.810278  s :     2.810278
      pz      :     0.916091  p :     2.867008
      px      :     1.100035
      py      :     0.850881
      dz2     :     0.075749  d :     0.439312
      dxz     :     0.122209
      dyz     :     0.031248
      dx2y2   :     0.101916
      dxy     :     0.108191
      f0      :     0.004932  f :     0.059740
      f+1     :     0.013752
      f-1     :     0.000333
      f+2     :     0.012420
      f-2     :     0.007877
      f+3     :     0.010021
      f-3     :     0.010405
 29 N s       :     3.311040  s :     3.311040
      pz      :     1.105338  p :     3.490277
      px      :     1.382157
      py      :     1.002781
      dz2     :     0.021342  d :     0.117782
      dxz     :     0.033824
      dyz     :     0.007322
      dx2y2   :     0.027477
      dxy     :     0.027817
      f0      :     0.001298  f :     0.015147
      f+1     :     0.003486
      f-1     :     0.000078
      f+2     :     0.003276
      f-2     :     0.001895
      f+3     :     0.002525
      f-3     :     0.002589


                      *****************************
                      * MAYER POPULATION ANALYSIS *
                      *****************************

  NA   - Mulliken gross atomic population
  ZA   - Total nuclear charge
  QA   - Mulliken gross atomic charge
  VA   - Mayer's total valence
  BVA  - Mayer's bonded valence
  FA   - Mayer's free valence

  ATOM       NA         ZA         QA         VA         BVA        FA
  0 C      6.1586     6.0000    -0.1586     3.9496     3.9496    -0.0000
  1 C      5.8717     6.0000     0.1283     4.0232     4.0232    -0.0000
  2 S     15.8579    16.0000     0.1421     2.3325     2.3325    -0.0000
  3 S     15.8539    16.0000     0.1461     2.3202     2.3202    -0.0000
  4 C      5.8469     6.0000     0.1531     3.8076     3.8076    -0.0000
  5 C      5.8759     6.0000     0.1241     3.8664     3.8664    -0.0000
  6 C      5.8534     6.0000     0.1466     3.7115     3.7115    -0.0000
  7 N      7.3110     7.0000    -0.3110     2.8854     2.8854    -0.0000
  8 S     15.6658    16.0000     0.3342     2.6187     2.6187    -0.0000
  9 C      6.1163     6.0000    -0.1163     3.8681     3.8681     0.0000
 10 N      7.1211     7.0000    -0.1211     3.0176     3.0176     0.0000
 11 C      6.1188     6.0000    -0.1188     3.8858     3.8858    -0.0000
 12 N      7.1181     7.0000    -0.1181     3.0144     3.0144     0.0000
 13 C      6.1098     6.0000    -0.1098     3.8185     3.8185    -0.0000
 14 N      7.1284     7.0000    -0.1284     3.0203     3.0203    -0.0000
 15 C      6.1621     6.0000    -0.1621     3.9799     3.9799     0.0000
 16 C      5.8652     6.0000     0.1348     4.0270     4.0270     0.0000
 17 S     15.8545    16.0000     0.1455     2.3299     2.3299     0.0000
 18 S     15.8495    16.0000     0.1505     2.3243     2.3243     0.0000
 19 C      5.8454     6.0000     0.1546     3.8116     3.8116     0.0000
 20 C      5.8691     6.0000     0.1309     3.8660     3.8660     0.0000
 21 C      5.8414     6.0000     0.1586     3.7309     3.7309     0.0000
 22 N      7.3086     7.0000    -0.3086     2.8803     2.8803     0.0000
 23 S     15.6899    16.0000     0.3101     2.6177     2.6177    -0.0000
 24 C      6.1159     6.0000    -0.1159     3.8658     3.8658    -0.0000
 25 N      7.1183     7.0000    -0.1183     3.0159     3.0159    -0.0000
 26 C      6.1178     6.0000    -0.1178     3.8854     3.8854    -0.0000
 27 N      7.1164     7.0000    -0.1164     3.0130     3.0130    -0.0000
 28 C      6.0819     6.0000    -0.0819     3.7620     3.7620     0.0000
 29 N      7.1566     7.0000    -0.1566     2.9518     2.9518    -0.0000

  Mayer bond orders larger than 0.1
B(  0-C ,  1-C ) :   1.2177 B(  0-C ,  2-S ) :   1.1475 B(  0-C ,  6-C ) :   1.5658 
B(  1-C ,  3-S ) :   1.0769 B(  1-C ,  7-N ) :   1.6643 B(  1-C ,  8-S ) :   0.1294 
B(  2-S ,  4-C ) :   1.1191 B(  3-S ,  5-C ) :   1.1403 B(  4-C ,  5-C ) :   1.7028 
B(  4-C ,  9-C ) :   0.9637 B(  5-C , 11-C ) :   0.9723 B(  6-C ,  8-S ) :   1.2812 
B(  6-C , 13-C ) :   0.9117 B(  7-N ,  8-S ) :   1.1383 B(  9-C , 10-N ) :   2.9652 
B( 11-C , 12-N ) :   2.9621 B( 13-C , 14-N ) :   2.9698 B( 15-C , 16-C ) :   1.2161 
B( 15-C , 17-S ) :   1.1463 B( 15-C , 21-C ) :   1.5880 B( 16-C , 18-S ) :   1.0809 
B( 16-C , 22-N ) :   1.6636 B( 16-C , 23-S ) :   0.1358 B( 17-S , 19-C ) :   1.1180 
B( 18-S , 20-C ) :   1.1378 B( 19-C , 20-C ) :   1.7045 B( 19-C , 24-C ) :   0.9636 
B( 20-C , 26-C ) :   0.9733 B( 21-C , 23-S ) :   1.2928 B( 21-C , 28-C ) :   0.9081 
B( 22-N , 23-S ) :   1.1256 B( 24-C , 25-N ) :   2.9627 B( 26-C , 27-N ) :   2.9599 
B( 28-C , 29-N ) :   2.9129 

-------
TIMINGS
-------

Total SCF time: 0 days 1 hours 57 min 12 sec 

Total time                  ....    7032.642 sec
Sum of individual times     ....    7030.060 sec  (100.0%)

Fock matrix formation       ....    7009.278 sec  ( 99.7%)
Diagonalization             ....       3.519 sec  (  0.1%)
Density matrix formation    ....       0.666 sec  (  0.0%)
Population analysis         ....       1.451 sec  (  0.0%)
Initial guess               ....       8.150 sec  (  0.1%)
Orbital Transformation      ....       0.000 sec  (  0.0%)
Orbital Orthonormalization  ....       0.000 sec  (  0.0%)
DIIS solution               ....       1.316 sec  (  0.0%)
SOSCF solution              ....       3.009 sec  (  0.0%)

-------------------------   --------------------
FINAL SINGLE POINT ENERGY     -3426.880455454606
-------------------------   --------------------


                            ***************************************
                            *     ORCA property calculations      *
                            ***************************************

                                    ---------------------
                                    Active property flags
                                    ---------------------
   (+) Dipole Moment


------------------------------------------------------------------------------
                       ORCA ELECTRIC PROPERTIES CALCULATION
------------------------------------------------------------------------------

Dipole Moment Calculation                       ... on
Quadrupole Moment Calculation                   ... off
Polarizability Calculation                      ... off
GBWName                                         ... data/orca/BLIND00001.gbw
Electron density file                           ... data/orca/BLIND00001.scfp.tmp

-------------
DIPOLE MOMENT
-------------
                                X             Y             Z
Electronic contribution:     -2.08044      -1.89675      -0.20890
Nuclear contribution   :      0.09494       0.09312       0.01912
                        -----------------------------------------
Total Dipole Moment    :     -1.98550      -1.80363      -0.18978
                        -----------------------------------------
Magnitude (a.u.)       :      2.68911
Magnitude (Debye)      :      6.83517


Timings for individual modules:

Sum of individual times         ...     7034.236 sec (= 117.237 min)
GTO integral calculation        ...        1.544 sec (=   0.026 min)   0.0 %
SCF iterations                  ...     7032.693 sec (= 117.212 min) 100.0 %
                             ****ORCA TERMINATED NORMALLY****
TOTAL RUN TIME: 0 days 1 hours 57 minutes 15 seconds 52 msec
