 Entering Gaussian System, Link 0=/data/szalewicgrp/connornm/opt/Gaussian/g09-M05-par/g09/g09
 AtFile(1): aug-cc-pVTZ.gbs
 Initial command:
 /data/szalewicgrp/connornm/opt/Gaussian/g09-M05-par/g09/l1.exe "/scratch/local/Gau-36956.inp" -scrdir="/scratch/local/"
 Entering Link 1 = /data/szalewicgrp/connornm/opt/Gaussian/g09-M05-par/g09/l1.exe PID=     36957.
  
 Copyright (c) 1988,1990,1992,1993,1995,1998,2003,2009,2013,
            Gaussian, Inc.  All Rights Reserved.
  
 This is part of the Gaussian(R) 09 program.  It is based on
 the Gaussian(R) 03 system (copyright 2003, Gaussian, Inc.),
 the Gaussian(R) 98 system (copyright 1998, Gaussian, Inc.),
 the Gaussian(R) 94 system (copyright 1995, Gaussian, Inc.),
 the Gaussian 92(TM) system (copyright 1992, Gaussian, Inc.),
 the Gaussian 90(TM) system (copyright 1990, Gaussian, Inc.),
 the Gaussian 88(TM) system (copyright 1988, Gaussian, Inc.),
 the Gaussian 86(TM) system (copyright 1986, Carnegie Mellon
 University), and the Gaussian 82(TM) system (copyright 1983,
 Carnegie Mellon University). Gaussian is a federally registered
 trademark of Gaussian, Inc.
  
 This software contains proprietary and confidential information,
 including trade secrets, belonging to Gaussian, Inc.
  
 This software is provided under written license and may be
 used, copied, transmitted, or stored only in accord with that
 written license.
  
 The following legend is applicable only to US Government
 contracts under FAR:
  
                    RESTRICTED RIGHTS LEGEND
  
 Use, reproduction and disclosure by the US Government is
 subject to restrictions as set forth in subparagraphs (a)
 and (c) of the Commercial Computer Software - Restricted
 Rights clause in FAR 52.227-19.
  
 Gaussian, Inc.
 340 Quinnipiac St., Bldg. 40, Wallingford CT 06492
  
  
 ---------------------------------------------------------------
 Warning -- This program may not be used in any manner that
 competes with the business of Gaussian, Inc. or will provide
 assistance to any competitor of Gaussian, Inc.  The licensee
 of this program is prohibited from giving any competitor of
 Gaussian, Inc. access to this program.  By using this program,
 the user acknowledges that Gaussian, Inc. is engaged in the
 business of creating and licensing software in the field of
 computational chemistry and represents and warrants to the
 licensee that it is not a competitor of Gaussian, Inc. and that
 it will not use this program in any manner prohibited above.
 ---------------------------------------------------------------
  

 Cite this work as:
 Gaussian 09, Revision D.01,
 M. J. Frisch, G. W. Trucks, H. B. Schlegel, G. E. Scuseria, 
 M. A. Robb, J. R. Cheeseman, G. Scalmani, V. Barone, B. Mennucci, 
 G. A. Petersson, H. Nakatsuji, M. Caricato, X. Li, H. P. Hratchian, 
 A. F. Izmaylov, J. Bloino, G. Zheng, J. L. Sonnenberg, M. Hada, 
 M. Ehara, K. Toyota, R. Fukuda, J. Hasegawa, M. Ishida, T. Nakajima, 
 Y. Honda, O. Kitao, H. Nakai, T. Vreven, J. A. Montgomery, Jr., 
 J. E. Peralta, F. Ogliaro, M. Bearpark, J. J. Heyd, E. Brothers, 
 K. N. Kudin, V. N. Staroverov, T. Keith, R. Kobayashi, J. Normand, 
 K. Raghavachari, A. Rendell, J. C. Burant, S. S. Iyengar, J. Tomasi, 
 M. Cossi, N. Rega, J. M. Millam, M. Klene, J. E. Knox, J. B. Cross, 
 V. Bakken, C. Adamo, J. Jaramillo, R. Gomperts, R. E. Stratmann, 
 O. Yazyev, A. J. Austin, R. Cammi, C. Pomelli, J. W. Ochterski, 
 R. L. Martin, K. Morokuma, V. G. Zakrzewski, G. A. Voth, 
 P. Salvador, J. J. Dannenberg, S. Dapprich, A. D. Daniels, 
 O. Farkas, J. B. Foresman, J. V. Ortiz, J. Cioslowski, 
 and D. J. Fox, Gaussian, Inc., Wallingford CT, 2013.
 
 ******************************************
 Gaussian 09:  AS64L-G09RevD.01 24-Apr-2013
                13-Dec-2018 
 ******************************************
 %Chk=BLIND02432
 %Mem=2GB
 %NProcShared=16
 Will use up to   16 processors via shared memory.
 ------------------------------------------------------------
 #T M05/Gen test Massage Symmetry=None SCF=(tight,maxcyc=130)
 ------------------------------------------------------------
 -------
 M05 opt
 -------
 Symbolic Z-matrix:
 Charge =  0 Multiplicity = 1
 6                     0.47464  -0.62699  -0.65016 
 6                     0.40523  -1.12804   0.68024 
 16                    0.55905   1.07278  -1.08854 
 16                    0.35996  -0.10535   2.12476 
 6                    -0.40278   1.7902    0.21694 
 6                    -0.47862   1.3214    1.49056 
 6                     0.53776  -1.68026  -1.54007 
 7                     0.40898  -2.42951   0.83528 
 16                    0.53196  -3.16847  -0.65123 
 6                    -1.08651   2.97638  -0.17878 
 7                    -1.60515   3.95136  -0.54158 
 6                    -1.24693   2.00275   2.48021 
 7                    -1.83626   2.54082   3.32525 
 6                     0.62832  -1.63365  -2.95244 
 7                     0.71218  -1.61414  -4.11161 
 6-Bq                  0.35783   0.73472   10.21729 
 6-Bq                  0.35802  -0.55698   10.81506 
 16-Bq                 0.55845   1.05596   8.50117 
 16-Bq                 0.53064  -2.06911   9.91047 
 6-Bq                 -0.21803  -0.38128   7.81156 
 6-Bq                 -0.22616  -1.61951   8.37225 
 6-Bq                  0.24792   1.69991   11.19791 
 7-Bq                  0.25669  -0.61723   12.12042 
 16-Bq                 0.18335   0.92345   12.74639 
 6-Bq                 -0.82254  -0.13688   6.54431 
 7-Bq                 -1.27964   0.10532   5.50336 
 6-Bq                 -0.84114  -2.72254   7.70962 
 7-Bq                 -1.30404  -3.65506   7.19286 
 6-Bq                  0.2203    3.10759   11.04677 
 7-Bq                  0.20538   4.26514   10.94215 
 
                    Distance matrix (angstroms):
                    1          2          3          4          5
     1  C    0.000000
     2  C    1.423315   0.000000
     3  S    1.757418   2.827694   0.000000
     4  S    2.825849   1.770477   3.428253   0.000000
     5  C    2.713774   3.063280   1.773167   2.795470   0.000000
     6  C    3.047557   2.727187   2.791121   1.772288   1.359281
     7  C    1.380327   2.291783   2.789903   3.992857   4.001979
     8  N    2.336642   1.310672   3.998700   2.658358   4.341342
     9  S    2.542129   2.439721   4.263822   4.137445   5.120151
    10  C    3.955208   4.450782   2.675676   4.110426   1.425163
    11  N    5.029770   5.597745   3.642685   5.237162   2.586817
    12  C    4.436049   3.971317   4.106384   2.674416   2.424897
    13  N    5.583831   5.047859   5.232040   3.642352   3.504263
    14  C    2.517432   3.674472   3.286888   5.309014   4.778168
    15  N    3.607292   4.826214   4.047461   6.425950   5.618639
    16  C   10.953047   9.717375  11.312671   8.136014  10.084615
    17  C   11.466023  10.151005  12.016332   8.702028  10.881552
    18  S    9.305161   8.121588   9.589721   6.484333   8.372063
    19  S   10.658784   9.278927  11.438990   8.031362  10.475210
    20  C    8.493579   7.197352   9.051520   5.722757   7.901124
    21  C    9.103848   7.733512   9.867702   6.455026   8.841175
    22  C   12.076533  10.892360  12.306383   9.251683  11.000604
    23  N   12.772439  11.452541  13.320066  10.009290  12.162375
    24  S   13.489113  12.241316  13.840836  10.672799  12.573060
    25  C    7.326889   6.072659   7.850639   4.575123   6.627628
    26  N    6.440462   5.255704   6.911579   3.761329   5.617287
    27  C    8.718281   7.314915   9.683622   6.283545   8.757690
    28  N    8.593358   7.191773   9.716231   6.407415   8.895311
    29  C   12.281277  11.199983  12.309382   9.483916  10.927434
    30  N   12.585191  11.594531  12.452060   9.842329  11.023849
                    6          7          8          9         10
     6  C    0.000000
     7  C    4.384939   0.000000
     8  N    3.909794   2.494036   0.000000
     9  S    5.076167   1.733444   1.664607   0.000000
    10  C    2.428007   5.116215   5.699860   6.371958   0.000000
    11  N    3.509330   6.107712   6.831389   7.434461   1.162408
    12  C    1.426163   5.736923   5.009263   6.301738   2.836178
    13  N    2.587713   6.864751   5.995430   7.349618   3.609722
    14  C    5.449573   1.416040   3.876636   2.767765   5.646781
    15  N    6.435818   2.578302   5.022796   3.797715   6.306769
    16  C    8.786325  12.004159   9.901362  11.549456  10.732632
    17  C    9.548532  12.407384  10.154059  11.761206  11.637691
    18  S    7.091861  10.407383   8.422384  10.080321   9.040763
    19  S    9.132848  11.457138   9.083158  10.618765  11.395836
    20  C    6.551492   9.471617   7.297731   8.941467   8.710555
    21  C    7.488007   9.941893   7.606931   9.186798   9.745898
    22  C    9.741856  13.182021  11.156261  12.813434  11.525592
    23  N   10.830177  13.704666  11.430743  13.026884  12.883653
    24  S   11.282293  14.526105  12.376096  14.012910  13.148653
    25  C    5.271169   8.342040   6.274221   7.924716   7.413639
    26  N    4.268841   7.490063   5.573843   7.202679   6.369223
    27  C    7.427073   9.409799   6.993223   8.484578   9.734714
    28  N    7.613317   9.140896   6.697403   8.070774   9.917882
    29  C    9.746792  13.470435  11.617635  13.278902  11.302118
    30  N    9.923001  13.829823  12.124708  13.775768  11.269649
                   11         12         13         14         15
    11  N    0.000000
    12  C    3.613393   0.000000
    13  N    4.122555   1.162293   0.000000
    14  C    6.480188   6.800997   7.931563   0.000000
    15  N    7.006418   7.769948   8.891861   1.162367   0.000000
    16  C   11.399708   8.002847   7.454940  13.383719  14.524462
    17  C   12.375480   8.865543   8.396928  13.812176  14.968249
    18  S    9.738369   6.356710   5.893174  11.765366  12.893222
    19  S   12.249611   8.657284   8.379658  12.870647  14.030634
    20  C    9.511622   5.930061   5.593239  10.869610  12.022783
    21  C   10.601537   6.991345   6.735942  11.356886  12.519076
    22  C   12.096226   8.850125   8.187167  14.542686  15.670993
    23  N   13.589139  10.102417   9.576461  15.111657  16.268991
    24  S   13.745441  10.421376   9.769979  15.911941  17.056119
    25  C    8.218033   4.612491   4.308135   9.722839  10.866757
    26  N    7.172119   3.569421   3.314457   8.841085   9.968527
    27  C   10.639870   7.059724   6.922123  10.817781  11.974254
    28  N   10.852182   7.363639   7.323289  10.523646  11.662824
    29  C   11.761550   8.761243   8.010768  14.785921  15.884366
    30  N   11.629816   8.878744   8.072092  15.100798  16.169061
                   16         17         18         19         20
    16  C    0.000000
    17  C    1.423315   0.000000
    18  S    1.757418   2.827694   0.000000
    19  S    2.825849   1.770477   3.428253   0.000000
    20  C    2.713774   3.063280   1.773167   2.795470   0.000000
    21  C    3.047557   2.727187   2.791121   1.772288   1.359281
    22  C    1.380327   2.291783   2.789903   3.992857   4.001979
    23  N    2.336642   1.310672   3.998700   2.658358   4.341342
    24  S    2.542129   2.439721   4.263822   4.137445   5.120151
    25  C    3.955208   4.450782   2.675676   4.110426   1.425163
    26  N    5.029770   5.597745   3.642685   5.237162   2.586817
    27  C    4.436049   3.971317   4.106384   2.674416   2.424897
    28  N    5.583831   5.047859   5.232040   3.642352   3.504263
    29  C    2.517432   3.674472   3.286888   5.309014   4.778168
    30  N    3.607292   4.826214   4.047461   6.425950   5.618639
                   21         22         23         24         25
    21  C    0.000000
    22  C    4.384939   0.000000
    23  N    3.909794   2.494036   0.000000
    24  S    5.076167   1.733444   1.664607   0.000000
    25  C    2.428007   5.116215   5.699860   6.371958   0.000000
    26  N    3.509330   6.107712   6.831389   7.434461   1.162408
    27  C    1.426163   5.736923   5.009263   6.301738   2.836178
    28  N    2.587713   6.864751   5.995430   7.349618   3.609722
    29  C    5.449573   1.416040   3.876636   2.767765   5.646781
    30  N    6.435818   2.578302   5.022796   3.797715   6.306769
                   26         27         28         29         30
    26  N    0.000000
    27  C    3.613393   0.000000
    28  N    4.122555   1.162293   0.000000
    29  C    6.480188   6.800997   7.931563   0.000000
    30  N    7.006418   7.769948   8.891861   1.162367   0.000000
 Symmetry turned off by external request.
 Rotational constants (GHZ):      0.2270427      0.0370588      0.0327999
  1404 basis functions,  2412 primitive gaussians,  1674 cartesian basis functions
    62 alpha electrons       62 beta electrons
       nuclear repulsion energy      1166.1400398815 Hartrees.
 IMHF & INEx in M05                  599485                  400514
 NAtoms=   30 NActive=   30 NUniq=   30 SFac= 1.00D+00 NAtFMM=   60 NAOKFM=F Big=F
 ExpMin= 3.51D-02 ExpMax= 3.74D+05 ExpMxC= 1.18D+03 IAcc=3 IRadAn=         5 AccDes= 0.00D+00
 Harris functional with IExCor= 1009 and IRadAn=       5 diagonalized for initial guess.
 HarFok:  IExCor= 1009 AccDes= 0.00D+00 IRadAn=         5 IDoV= 1 UseB2=F ITyADJ=14
 ICtDFT=  3500011 ScaDFX=  1.000000  1.000000  1.000000  1.000000
 FoFCou: FMM=F IPFlag=           0 FMFlag=      100000 FMFlg1=           0
         NFxFlg=           0 DoJE=T BraDBF=F KetDBF=T FulRan=T
         wScrn=  0.000000 ICntrl=     500 IOpCl=  0 I1Cent=   200000004 NGrid=           0
         NMat0=    1 NMatS0=      1 NMatT0=    0 NMatD0=    1 NMtDS0=    0 NMtDT0=    0
 Symmetry not used in FoFCou.
