 Entering Gaussian System, Link 0=/data/szalewicgrp/connornm/opt/Gaussian/g09-M05-par/g09/g09
 AtFile(1): aug-cc-pVTZ.gbs
 Initial command:
 /data/szalewicgrp/connornm/opt/Gaussian/g09-M05-par/g09/l1.exe "/scratch/local/Gau-19862.inp" -scrdir="/scratch/local/"
 Entering Link 1 = /data/szalewicgrp/connornm/opt/Gaussian/g09-M05-par/g09/l1.exe PID=     19863.
  
 Copyright (c) 1988,1990,1992,1993,1995,1998,2003,2009,2013,
            Gaussian, Inc.  All Rights Reserved.
  
 This is part of the Gaussian(R) 09 program.  It is based on
 the Gaussian(R) 03 system (copyright 2003, Gaussian, Inc.),
 the Gaussian(R) 98 system (copyright 1998, Gaussian, Inc.),
 the Gaussian(R) 94 system (copyright 1995, Gaussian, Inc.),
 the Gaussian 92(TM) system (copyright 1992, Gaussian, Inc.),
 the Gaussian 90(TM) system (copyright 1990, Gaussian, Inc.),
 the Gaussian 88(TM) system (copyright 1988, Gaussian, Inc.),
 the Gaussian 86(TM) system (copyright 1986, Carnegie Mellon
 University), and the Gaussian 82(TM) system (copyright 1983,
 Carnegie Mellon University). Gaussian is a federally registered
 trademark of Gaussian, Inc.
  
 This software contains proprietary and confidential information,
 including trade secrets, belonging to Gaussian, Inc.
  
 This software is provided under written license and may be
 used, copied, transmitted, or stored only in accord with that
 written license.
  
 The following legend is applicable only to US Government
 contracts under FAR:
  
                    RESTRICTED RIGHTS LEGEND
  
 Use, reproduction and disclosure by the US Government is
 subject to restrictions as set forth in subparagraphs (a)
 and (c) of the Commercial Computer Software - Restricted
 Rights clause in FAR 52.227-19.
  
 Gaussian, Inc.
 340 Quinnipiac St., Bldg. 40, Wallingford CT 06492
  
  
 ---------------------------------------------------------------
 Warning -- This program may not be used in any manner that
 competes with the business of Gaussian, Inc. or will provide
 assistance to any competitor of Gaussian, Inc.  The licensee
 of this program is prohibited from giving any competitor of
 Gaussian, Inc. access to this program.  By using this program,
 the user acknowledges that Gaussian, Inc. is engaged in the
 business of creating and licensing software in the field of
 computational chemistry and represents and warrants to the
 licensee that it is not a competitor of Gaussian, Inc. and that
 it will not use this program in any manner prohibited above.
 ---------------------------------------------------------------
  

 Cite this work as:
 Gaussian 09, Revision D.01,
 M. J. Frisch, G. W. Trucks, H. B. Schlegel, G. E. Scuseria, 
 M. A. Robb, J. R. Cheeseman, G. Scalmani, V. Barone, B. Mennucci, 
 G. A. Petersson, H. Nakatsuji, M. Caricato, X. Li, H. P. Hratchian, 
 A. F. Izmaylov, J. Bloino, G. Zheng, J. L. Sonnenberg, M. Hada, 
 M. Ehara, K. Toyota, R. Fukuda, J. Hasegawa, M. Ishida, T. Nakajima, 
 Y. Honda, O. Kitao, H. Nakai, T. Vreven, J. A. Montgomery, Jr., 
 J. E. Peralta, F. Ogliaro, M. Bearpark, J. J. Heyd, E. Brothers, 
 K. N. Kudin, V. N. Staroverov, T. Keith, R. Kobayashi, J. Normand, 
 K. Raghavachari, A. Rendell, J. C. Burant, S. S. Iyengar, J. Tomasi, 
 M. Cossi, N. Rega, J. M. Millam, M. Klene, J. E. Knox, J. B. Cross, 
 V. Bakken, C. Adamo, J. Jaramillo, R. Gomperts, R. E. Stratmann, 
 O. Yazyev, A. J. Austin, R. Cammi, C. Pomelli, J. W. Ochterski, 
 R. L. Martin, K. Morokuma, V. G. Zakrzewski, G. A. Voth, 
 P. Salvador, J. J. Dannenberg, S. Dapprich, A. D. Daniels, 
 O. Farkas, J. B. Foresman, J. V. Ortiz, J. Cioslowski, 
 and D. J. Fox, Gaussian, Inc., Wallingford CT, 2013.
 
 ******************************************
 Gaussian 09:  AS64L-G09RevD.01 24-Apr-2013
                 8-Dec-2018 
 ******************************************
 %Chk=CH400269
 %Mem=2GB
 %NProcShared=16
 Will use up to   16 processors via shared memory.
 ---------------------------------------------
 #T M05/Gen test Massage SCF=(tight,maxcyc=40)
 ---------------------------------------------
 -------
 M05 opt
 -------
 Symbolic Z-matrix:
 Charge =  0 Multiplicity = 1
 6                     0.        0.        0. 
 1                     0.02528   0.       -1.10695 
 1                     1.00648  -0.24327   0.39217 
 1                    -0.30526   1.00081   0.3622 
 1                    -0.72651  -0.75753   0.35258 
 6-Bq                  0.        0.        4.33784 
 1-Bq                 -0.02253   0.10485   3.2358 
 1-Bq                  0.05629  -1.07295   4.60543 
 1-Bq                  0.886     0.52785   4.74077 
 1-Bq                 -0.91977   0.44024   4.76935 
 
                    Distance matrix (angstroms):
                    1          2          3          4          5
     1  C    0.000000
     2  H    1.107242   0.000000
     3  H    1.107242   1.808119   0.000000
     4  H    1.107243   1.808119   1.808119   0.000000
     5  H    1.107242   1.808119   1.808119   1.808119   0.000000
     6  C    4.337839   5.444852   4.079280   4.111017   4.121157
     7  H    3.237579   4.344285   3.044064   3.023282   3.090673
     8  H    4.729095   5.812355   4.398044   4.736676   4.335775
     9  H    4.851657   5.934256   4.418093   4.562310   4.848571
    10  H    4.877140   5.968073   4.830878   4.484952   4.580378
                    6          7          8          9         10
     6  C    0.000000
     7  H    1.107243   0.000000
     8  H    1.107242   1.808119   0.000000
     9  H    1.107243   1.808119   1.808119   0.000000
    10  H    1.107243   1.808119   1.808119   1.808119   0.000000
 Symmetry turned off by external request.
 This structure is nearly, but not quite of a higher symmetry.
 Consider Symm=Loose if the higher symmetry is desired.
 Framework group  C1[X(C2H8)]
 Deg. of freedom    24
 Rotational constants (GHZ):     76.6916056      3.2104062      3.2104062
   276 basis functions,   360 primitive gaussians,   310 cartesian basis functions
     5 alpha electrons        5 beta electrons
       nuclear repulsion energy        13.2261670071 Hartrees.
 IMHF & INEx in M05                  614413                  385587
 NAtoms=   10 NActive=   10 NUniq=   10 SFac= 1.00D+00 NAtFMM=   60 NAOKFM=F Big=F
 ExpMin= 2.53D-02 ExpMax= 8.24D+03 ExpMxC= 2.81D+02 IAcc=3 IRadAn=         5 AccDes= 0.00D+00
 Harris functional with IExCor= 1009 and IRadAn=       5 diagonalized for initial guess.
 HarFok:  IExCor= 1009 AccDes= 0.00D+00 IRadAn=         5 IDoV= 1 UseB2=F ITyADJ=14
 ICtDFT=  3500011 ScaDFX=  1.000000  1.000000  1.000000  1.000000
 FoFCou: FMM=F IPFlag=           0 FMFlag=      100000 FMFlg1=           0
         NFxFlg=           0 DoJE=T BraDBF=F KetDBF=T FulRan=T
         wScrn=  0.000000 ICntrl=     500 IOpCl=  0 I1Cent=   200000004 NGrid=           0
         NMat0=    1 NMatS0=      1 NMatT0=    0 NMatD0=    1 NMtDS0=    0 NMtDT0=    0
 Symmetry not used in FoFCou.
 SCF Done:  E(RM05) =  -45.8797965598     A.U. after   10 cycles
            NFock= 10  Conv=0.56D-08     -V/T= 2.0335

 **********************************************************************

            Population analysis using the SCF density.

 **********************************************************************

 Alpha  occ. eigenvalues --  -12.05208  -0.99432  -0.71142  -0.71141  -0.71141
 Alpha virt. eigenvalues --   -0.08966  -0.01738  -0.01733  -0.01733  -0.00580
 Alpha virt. eigenvalues --   -0.00261  -0.00256   0.02865   0.04149   0.04245
 Alpha virt. eigenvalues --    0.05789   0.05820   0.05985   0.07183   0.08044
 Alpha virt. eigenvalues --    0.08069   0.09350   0.10692   0.11889   0.12107
 Alpha virt. eigenvalues --    0.14148   0.18005   0.18816   0.18871   0.20973
 Alpha virt. eigenvalues --    0.21162   0.21286   0.21797   0.22139   0.22374
 Alpha virt. eigenvalues --    0.24538   0.24761   0.24810   0.25348   0.25665
 Alpha virt. eigenvalues --    0.25933   0.26747   0.28251   0.28667   0.28906
 Alpha virt. eigenvalues --    0.30451   0.30520   0.33414   0.35358   0.36163
 Alpha virt. eigenvalues --    0.36343   0.37268   0.39322   0.39838   0.40274
 Alpha virt. eigenvalues --    0.40972   0.41887   0.42200   0.45816   0.46216
 Alpha virt. eigenvalues --    0.46585   0.49068   0.51451   0.52189   0.56824
 Alpha virt. eigenvalues --    0.56887   0.57478   0.57786   0.58396   0.60110
 Alpha virt. eigenvalues --    0.62950   0.64319   0.64711   0.65265   0.66081
 Alpha virt. eigenvalues --    0.66414   0.69782   0.70226   0.70476   0.70880
 Alpha virt. eigenvalues --    0.71242   0.72384   0.72730   0.76504   0.76727
 Alpha virt. eigenvalues --    0.77182   0.81184   0.81455   0.82276   0.85601
 Alpha virt. eigenvalues --    0.85907   0.90047   0.91498   0.91983   0.92760
 Alpha virt. eigenvalues --    0.93020   0.94475   0.97253   0.98712   0.99855
 Alpha virt. eigenvalues --    1.01065   1.01956   1.03245   1.03613   1.04366
 Alpha virt. eigenvalues --    1.06992   1.07252   1.07337   1.07965   1.09369
 Alpha virt. eigenvalues --    1.10103   1.10691   1.12884   1.14692   1.17548
 Alpha virt. eigenvalues --    1.18713   1.22098   1.22995   1.24063   1.24352
 Alpha virt. eigenvalues --    1.25817   1.27261   1.27433   1.28138   1.29213
 Alpha virt. eigenvalues --    1.30432   1.30527   1.35896   1.37431   1.37709
 Alpha virt. eigenvalues --    1.38342   1.38351   1.42908   1.43743   1.44560
 Alpha virt. eigenvalues --    1.46979   1.47017   1.49440   1.51961   1.54703
 Alpha virt. eigenvalues --    1.57664   1.58011   1.63671   1.70008   1.71723
 Alpha virt. eigenvalues --    1.72940   1.74223   1.74528   1.75959   1.83929
 Alpha virt. eigenvalues --    1.84253   1.85746   1.89752   1.89942   1.94187
 Alpha virt. eigenvalues --    2.01891   2.02088   2.04088   2.04463   2.07003
 Alpha virt. eigenvalues --    2.07442   2.12937   2.28114   2.29418   2.32149
 Alpha virt. eigenvalues --    2.39987   2.45185   2.46375   2.47758   2.47956
 Alpha virt. eigenvalues --    2.52208   2.68137   2.68326   2.74748   2.89470
 Alpha virt. eigenvalues --    2.97798   2.97931   2.98894   2.99316   3.03792
 Alpha virt. eigenvalues --    3.06722   3.07073   3.16084   3.21859   3.21926
 Alpha virt. eigenvalues --    3.29115   3.44685   3.44846   3.46256   3.46503
 Alpha virt. eigenvalues --    3.48411   3.48884   3.49088   3.56657   3.57073
 Alpha virt. eigenvalues --    3.79602   3.90311   3.90344   3.92684   3.99663
 Alpha virt. eigenvalues --    4.00039   4.00409   4.02160   4.02233   4.03512
 Alpha virt. eigenvalues --    4.03593   4.04513   4.07707   4.08346   4.11618
 Alpha virt. eigenvalues --    4.15661   4.16861   4.17476   4.19226   4.20147
 Alpha virt. eigenvalues --    4.31849   4.36207   4.37049   4.37437   4.41976
 Alpha virt. eigenvalues --    4.42656   4.46984   4.47363   4.47959   4.49003
 Alpha virt. eigenvalues --    4.53351   4.53622   4.60722   4.61381   4.67096
 Alpha virt. eigenvalues --    4.79713   4.83417   4.88584   4.89608   4.89728
 Alpha virt. eigenvalues --    4.92301   4.92654   4.93577   5.02444   5.02486
 Alpha virt. eigenvalues --    5.15327   5.15585   5.16224   5.16324   5.16511
 Alpha virt. eigenvalues --    5.17299   5.30374   5.30595   5.31527   5.42855
 Alpha virt. eigenvalues --    5.43208   5.48917   5.49006   5.49921   5.61159
 Alpha virt. eigenvalues --    5.61416   5.63830   5.65873   6.14103   6.14867
 Alpha virt. eigenvalues --    6.15191   6.24534   6.24537   6.80594   6.80735
 Alpha virt. eigenvalues --    6.93797   7.01865   7.66805   7.66900   7.67268
 Alpha virt. eigenvalues --    8.03601   8.04814   8.10964  10.36836  15.09123
 Alpha virt. eigenvalues --   52.72473
          Condensed to atoms (all electrons):
 Mulliken charges:
               1
     1  C    0.475430
     2  H   -0.218066
     3  H   -0.085323
     4  H   -0.089505
     5  H   -0.086261
     6  C   -0.006080
     7  H    0.011277
     8  H   -0.000681
     9  H   -0.000467
    10  H   -0.000326
 Sum of Mulliken charges =  -0.00000
 Mulliken charges with hydrogens summed into heavy atoms:
               1
     1  C   -0.003724
     6  C    0.003724
 Electronic spatial extent (au):  <R**2>=             35.5900
 Charge=              0.0000 electrons
 Dipole moment (field-independent basis, Debye):
    X=             -0.0001    Y=             -0.0002    Z=              0.0005  Tot=              0.0006

 Test job not archived.
 1\1\GINC-CHIMERA-NODE53\SP\RM05\Gen\C2H8\CONNORNM\08-Dec-2018\0\\#T M0
 5/Gen test Massage SCF=(tight,maxcyc=40)\\M05 opt\\0,1\C,0,0.,0.,0.\H,
 0,0.02528397,0.,-1.10695378\H,0,1.00648361,-0.24327421,0.39216623\H,0,
 -0.30525708,1.00080559,0.36220471\H,0,-0.7265105,-0.75753137,0.3525828
 5\C,0,0.,0.,4.33783902\H,0,-0.02252677,0.10485358,3.23580262\H,0,0.056
 28758,-1.07294656,4.60542702\H,0,0.8860045,0.52784907,4.74077492\H,0,-
 0.91976531,0.44024391,4.76935152\\Version=AS64L-G09RevD.01\HF=-45.8797
 966\RMSD=5.587e-09\Dipole=-0.0000306,-0.0000824,0.0002161\Quadrupole=0
 .0001358,0.0000251,-0.0001609,0.0001106,-0.0000253,-0.0001622\PG=C01 [
 X(C2H8)]\\@


 ADVERTISING--  HE WHO HAS SOMETHING TO SELL AND GOES AND WHISPERS
                IN A WELL, IS NOT SO APT TO GET THE DOLLARS AS HE
                WHO CLIMBS A TREE AND HOLLERS.

                   -- FROM THE BACK OF A SUGAR PACKET
 Job cpu time:       0 days  0 hours 15 minutes  3.9 seconds.
 File lengths (MBytes):  RWF=     41 Int=      0 D2E=      0 Chk=      4 Scr=      1
 Normal termination of Gaussian 09 at Sat Dec  8 13:51:58 2018.
