 Entering Gaussian System, Link 0=/data/szalewicgrp/connornm/opt/Gaussian/g09-M05-par/g09/g09
 AtFile(1): aug-cc-pVTZ.gbs
 Initial command:
 /data/szalewicgrp/connornm/opt/Gaussian/g09-M05-par/g09/l1.exe "/scratch/local/Gau-45877.inp" -scrdir="/scratch/local/"
 Entering Link 1 = /data/szalewicgrp/connornm/opt/Gaussian/g09-M05-par/g09/l1.exe PID=     45878.
  
 Copyright (c) 1988,1990,1992,1993,1995,1998,2003,2009,2013,
            Gaussian, Inc.  All Rights Reserved.
  
 This is part of the Gaussian(R) 09 program.  It is based on
 the Gaussian(R) 03 system (copyright 2003, Gaussian, Inc.),
 the Gaussian(R) 98 system (copyright 1998, Gaussian, Inc.),
 the Gaussian(R) 94 system (copyright 1995, Gaussian, Inc.),
 the Gaussian 92(TM) system (copyright 1992, Gaussian, Inc.),
 the Gaussian 90(TM) system (copyright 1990, Gaussian, Inc.),
 the Gaussian 88(TM) system (copyright 1988, Gaussian, Inc.),
 the Gaussian 86(TM) system (copyright 1986, Carnegie Mellon
 University), and the Gaussian 82(TM) system (copyright 1983,
 Carnegie Mellon University). Gaussian is a federally registered
 trademark of Gaussian, Inc.
  
 This software contains proprietary and confidential information,
 including trade secrets, belonging to Gaussian, Inc.
  
 This software is provided under written license and may be
 used, copied, transmitted, or stored only in accord with that
 written license.
  
 The following legend is applicable only to US Government
 contracts under FAR:
  
                    RESTRICTED RIGHTS LEGEND
  
 Use, reproduction and disclosure by the US Government is
 subject to restrictions as set forth in subparagraphs (a)
 and (c) of the Commercial Computer Software - Restricted
 Rights clause in FAR 52.227-19.
  
 Gaussian, Inc.
 340 Quinnipiac St., Bldg. 40, Wallingford CT 06492
  
  
 ---------------------------------------------------------------
 Warning -- This program may not be used in any manner that
 competes with the business of Gaussian, Inc. or will provide
 assistance to any competitor of Gaussian, Inc.  The licensee
 of this program is prohibited from giving any competitor of
 Gaussian, Inc. access to this program.  By using this program,
 the user acknowledges that Gaussian, Inc. is engaged in the
 business of creating and licensing software in the field of
 computational chemistry and represents and warrants to the
 licensee that it is not a competitor of Gaussian, Inc. and that
 it will not use this program in any manner prohibited above.
 ---------------------------------------------------------------
  

 Cite this work as:
 Gaussian 09, Revision D.01,
 M. J. Frisch, G. W. Trucks, H. B. Schlegel, G. E. Scuseria, 
 M. A. Robb, J. R. Cheeseman, G. Scalmani, V. Barone, B. Mennucci, 
 G. A. Petersson, H. Nakatsuji, M. Caricato, X. Li, H. P. Hratchian, 
 A. F. Izmaylov, J. Bloino, G. Zheng, J. L. Sonnenberg, M. Hada, 
 M. Ehara, K. Toyota, R. Fukuda, J. Hasegawa, M. Ishida, T. Nakajima, 
 Y. Honda, O. Kitao, H. Nakai, T. Vreven, J. A. Montgomery, Jr., 
 J. E. Peralta, F. Ogliaro, M. Bearpark, J. J. Heyd, E. Brothers, 
 K. N. Kudin, V. N. Staroverov, T. Keith, R. Kobayashi, J. Normand, 
 K. Raghavachari, A. Rendell, J. C. Burant, S. S. Iyengar, J. Tomasi, 
 M. Cossi, N. Rega, J. M. Millam, M. Klene, J. E. Knox, J. B. Cross, 
 V. Bakken, C. Adamo, J. Jaramillo, R. Gomperts, R. E. Stratmann, 
 O. Yazyev, A. J. Austin, R. Cammi, C. Pomelli, J. W. Ochterski, 
 R. L. Martin, K. Morokuma, V. G. Zakrzewski, G. A. Voth, 
 P. Salvador, J. J. Dannenberg, S. Dapprich, A. D. Daniels, 
 O. Farkas, J. B. Foresman, J. V. Ortiz, J. Cioslowski, 
 and D. J. Fox, Gaussian, Inc., Wallingford CT, 2013.
 
 ******************************************
 Gaussian 09:  AS64L-G09RevD.01 24-Apr-2013
                 7-Dec-2018 
 ******************************************
 %Chk=CH400049
 %Mem=2GB
 %NProcShared=16
 Will use up to   16 processors via shared memory.
 ---------------------------------------------
 #T M05/Gen test Massage SCF=(tight,maxcyc=40)
 ---------------------------------------------
 -------
 M05 opt
 -------
 Symbolic Z-matrix:
 Charge =  0 Multiplicity = 1
 6                     0.        0.        0. 
 1                     0.79331   0.        0.77243 
 1                    -0.92059  -0.45286   0.41642 
 1                    -0.20996   1.04099  -0.31343 
 1                     0.33724  -0.58813  -0.87542 
 6-Bq                  0.        0.        2.55097 
 1-Bq                  0.66166  -0.29797   3.38727 
 1-Bq                 -0.09152  -0.84001   1.83543 
 1-Bq                 -1.00129   0.25855   2.94663 
 1-Bq                  0.43115   0.87943   2.03453 
 
                    Distance matrix (angstroms):
                    1          2          3          4          5
     1  C    0.000000
     2  H    1.107243   0.000000
     3  H    1.107243   1.808119   0.000000
     4  H    1.107243   1.808119   1.808119   0.000000
     5  H    1.107243   1.808119   1.808119   1.808119   0.000000
     6  C    2.550967   1.947448   2.368302   3.054916   3.492815
     7  H    3.464129   2.635059   3.369491   4.030846   4.284856
     8  H    2.020597   1.618187   1.688444   2.858290   2.756084
     9  H    3.122830   2.831010   2.629557   3.444766   4.137221
    10  H    2.258009   1.580339   2.494090   2.439271   3.260425
                    6          7          8          9         10
     6  C    0.000000
     7  H    1.107243   0.000000
     8  H    1.107242   1.808119   0.000000
     9  H    1.107243   1.808119   1.808119   0.000000
    10  H    1.107242   1.808119   1.808119   1.808119   0.000000
 Symmetry turned off by external request.
 This structure is nearly, but not quite of a higher symmetry.
 Consider Symm=Loose if the higher symmetry is desired.
 Framework group  C1[X(C2H8)]
 Deg. of freedom    24
 Rotational constants (GHZ):     76.6916056      8.6020404      8.6020404
   276 basis functions,   360 primitive gaussians,   310 cartesian basis functions
     5 alpha electrons        5 beta electrons
       nuclear repulsion energy        13.2261669776 Hartrees.
 IMHF & INEx in M05                  614413                  385587
 NAtoms=   10 NActive=   10 NUniq=   10 SFac= 1.00D+00 NAtFMM=   60 NAOKFM=F Big=F
 ExpMin= 2.53D-02 ExpMax= 8.24D+03 ExpMxC= 2.81D+02 IAcc=3 IRadAn=         5 AccDes= 0.00D+00
 Harris functional with IExCor= 1009 and IRadAn=       5 diagonalized for initial guess.
 HarFok:  IExCor= 1009 AccDes= 0.00D+00 IRadAn=         5 IDoV= 1 UseB2=F ITyADJ=14
 ICtDFT=  3500011 ScaDFX=  1.000000  1.000000  1.000000  1.000000
 FoFCou: FMM=F IPFlag=           0 FMFlag=      100000 FMFlg1=           0
         NFxFlg=           0 DoJE=T BraDBF=F KetDBF=T FulRan=T
         wScrn=  0.000000 ICntrl=     500 IOpCl=  0 I1Cent=   200000004 NGrid=           0
         NMat0=    1 NMatS0=      1 NMatT0=    0 NMatD0=    1 NMtDS0=    0 NMtDT0=    0
 Symmetry not used in FoFCou.
 SCF Done:  E(RM05) =  -40.9123263347     A.U. after    7 cycles
            NFock=  7  Conv=0.78D-08     -V/T= 2.0126

 **********************************************************************

            Population analysis using the SCF density.

 **********************************************************************

 Alpha  occ. eigenvalues --  -10.74533  -0.82770  -0.48756  -0.48754  -0.48752
 Alpha virt. eigenvalues --   -0.00113   0.02475   0.02650   0.02783   0.04987
 Alpha virt. eigenvalues --    0.05275   0.05756   0.06315   0.08077   0.08895
 Alpha virt. eigenvalues --    0.10009   0.10713   0.10825   0.11144   0.12352
 Alpha virt. eigenvalues --    0.13287   0.15911   0.16644   0.17302   0.19316
 Alpha virt. eigenvalues --    0.21703   0.22574   0.23527   0.24815   0.26256
 Alpha virt. eigenvalues --    0.27097   0.27648   0.28384   0.28858   0.29742
 Alpha virt. eigenvalues --    0.30453   0.31226   0.31439   0.32780   0.33371
 Alpha virt. eigenvalues --    0.33959   0.34994   0.35931   0.36792   0.37473
 Alpha virt. eigenvalues --    0.38097   0.38500   0.41274   0.42815   0.43717
 Alpha virt. eigenvalues --    0.44025   0.45238   0.46267   0.46991   0.48281
 Alpha virt. eigenvalues --    0.48707   0.48982   0.50444   0.51660   0.55921
 Alpha virt. eigenvalues --    0.56860   0.57472   0.58055   0.59873   0.61294
 Alpha virt. eigenvalues --    0.62664   0.64928   0.67133   0.68554   0.70984
 Alpha virt. eigenvalues --    0.71492   0.73434   0.75486   0.77364   0.78159
 Alpha virt. eigenvalues --    0.80157   0.81977   0.83207   0.86044   0.87509
 Alpha virt. eigenvalues --    0.89346   0.90138   0.92142   0.93378   0.94151
 Alpha virt. eigenvalues --    0.95411   0.96579   0.97898   0.99129   1.00148
 Alpha virt. eigenvalues --    1.01305   1.02200   1.02549   1.03165   1.03821
 Alpha virt. eigenvalues --    1.06494   1.07514   1.08539   1.09658   1.10531
 Alpha virt. eigenvalues --    1.11275   1.13502   1.13723   1.13869   1.15296
 Alpha virt. eigenvalues --    1.16214   1.21186   1.22810   1.27915   1.28465
 Alpha virt. eigenvalues --    1.30163   1.31222   1.31478   1.32536   1.33606
 Alpha virt. eigenvalues --    1.36064   1.36880   1.38069   1.40503   1.42089
 Alpha virt. eigenvalues --    1.44379   1.45397   1.46179   1.46876   1.48719
 Alpha virt. eigenvalues --    1.50328   1.53234   1.55400   1.57116   1.60654
 Alpha virt. eigenvalues --    1.62393   1.64772   1.65605   1.68427   1.70885
 Alpha virt. eigenvalues --    1.74302   1.75354   1.77713   1.78670   1.81333
 Alpha virt. eigenvalues --    1.83509   1.84667   1.87514   1.88404   1.89843
 Alpha virt. eigenvalues --    1.91351   1.93149   1.94881   1.97296   1.98344
 Alpha virt. eigenvalues --    1.99388   2.00624   2.02701   2.03468   2.08273
 Alpha virt. eigenvalues --    2.10084   2.13475   2.15968   2.19601   2.20150
 Alpha virt. eigenvalues --    2.27335   2.32233   2.36038   2.42096   2.43944
 Alpha virt. eigenvalues --    2.47289   2.54826   2.65170   2.65406   2.69288
 Alpha virt. eigenvalues --    2.85345   2.90951   2.99968   3.05936   3.13144
 Alpha virt. eigenvalues --    3.26900   3.30677   3.31693   3.34276   3.36541
 Alpha virt. eigenvalues --    3.39607   3.41684   3.56942   3.60434   3.60579
 Alpha virt. eigenvalues --    3.63264   3.70512   3.75755   3.76751   3.78562
 Alpha virt. eigenvalues --    3.79088   3.82171   3.84580   3.87923   3.89218
 Alpha virt. eigenvalues --    3.96739   4.00502   4.01983   4.05388   4.08292
 Alpha virt. eigenvalues --    4.14521   4.15993   4.18141   4.19867   4.24792
 Alpha virt. eigenvalues --    4.28163   4.30861   4.32324   4.36793   4.37223
 Alpha virt. eigenvalues --    4.39877   4.42947   4.45511   4.47542   4.48539
 Alpha virt. eigenvalues --    4.50497   4.51859   4.52943   4.56479   4.58317
 Alpha virt. eigenvalues --    4.62527   4.64383   4.66646   4.73199   4.76146
 Alpha virt. eigenvalues --    4.79939   4.85498   4.86760   4.89797   4.93351
 Alpha virt. eigenvalues --    4.98854   5.04620   5.10557   5.15234   5.17201
 Alpha virt. eigenvalues --    5.18722   5.20435   5.22392   5.25498   5.27188
 Alpha virt. eigenvalues --    5.28400   5.31578   5.33156   5.35622   5.39477
 Alpha virt. eigenvalues --    5.44082   5.46522   5.47548   5.54129   5.63173
 Alpha virt. eigenvalues --    5.65111   5.67772   5.80039   5.80873   5.87450
 Alpha virt. eigenvalues --    6.06176   6.08431   6.12616   6.14413   6.17433
 Alpha virt. eigenvalues --    6.19172   6.22816   6.28651   6.79168   6.80615
 Alpha virt. eigenvalues --    6.84851   7.14278   7.56968   7.60882   7.63145
 Alpha virt. eigenvalues --    8.05668   8.10370   8.17546  10.47128  17.55781
 Alpha virt. eigenvalues --   53.48820
          Condensed to atoms (all electrons):
 Mulliken charges:
               1
     1  C   -2.059773
     2  H    0.635221
     3  H    0.506698
     4  H    0.445971
     5  H    0.426572
     6  C   -0.035241
     7  H    0.013976
     8  H    0.090959
     9  H   -0.004629
    10  H   -0.019755
 Sum of Mulliken charges =  -0.00000
 Mulliken charges with hydrogens summed into heavy atoms:
               1
     1  C   -0.045310
     6  C    0.045310
 Electronic spatial extent (au):  <R**2>=             36.5410
 Charge=              0.0000 electrons
 Dipole moment (field-independent basis, Debye):
    X=             -0.0001    Y=              0.0000    Z=              0.0001  Tot=              0.0002

 Test job not archived.
 1\1\GINC-CHIMERA-NODE15\SP\RM05\Gen\C2H8\CONNORNM\07-Dec-2018\0\\#T M0
 5/Gen test Massage SCF=(tight,maxcyc=40)\\M05 opt\\0,1\C,0,0.,0.,0.\H,
 0,0.79331213,0.,0.77242594\H,0,-0.92059357,-0.45286331,0.41642317\H,0,
 -0.20995662,1.04099294,-0.31342922\H,0,0.33723806,-0.58812963,-0.87541
 989\C,0,0.,0.,2.55096706\H,0,0.66166158,-0.29796601,3.38727213\H,0,-0.
 09151625,-0.84001314,1.83543324\H,0,-1.00129324,0.2585513,2.94662984\H
 ,0,0.4311479,0.87942785,2.03453304\\Version=AS64L-G09RevD.01\HF=-40.91
 23263\RMSD=7.791e-09\Dipole=-0.0000319,0.0000162,0.0000515\Quadrupole=
 0.0001287,-0.0003227,0.0001941,-0.0002558,-0.0001369,0.0001111\PG=C01 
 [X(C2H8)]\\@


 Not by the face shall a man be known, but by the mask.
                               -- Karen Blixen
 Job cpu time:       0 days  0 hours 13 minutes 32.4 seconds.
 File lengths (MBytes):  RWF=     41 Int=      0 D2E=      0 Chk=      4 Scr=      1
 Normal termination of Gaussian 09 at Fri Dec  7 13:59:06 2018.
