 Entering Gaussian System, Link 0=/data/szalewicgrp/connornm/opt/Gaussian/g09-M05-par/g09/g09
 AtFile(1): aug-cc-pVTZ.gbs
 Initial command:
 /data/szalewicgrp/connornm/opt/Gaussian/g09-M05-par/g09/l1.exe "/scratch/local/Gau-31452.inp" -scrdir="/scratch/local/"
 Entering Link 1 = /data/szalewicgrp/connornm/opt/Gaussian/g09-M05-par/g09/l1.exe PID=     31453.
  
 Copyright (c) 1988,1990,1992,1993,1995,1998,2003,2009,2013,
            Gaussian, Inc.  All Rights Reserved.
  
 This is part of the Gaussian(R) 09 program.  It is based on
 the Gaussian(R) 03 system (copyright 2003, Gaussian, Inc.),
 the Gaussian(R) 98 system (copyright 1998, Gaussian, Inc.),
 the Gaussian(R) 94 system (copyright 1995, Gaussian, Inc.),
 the Gaussian 92(TM) system (copyright 1992, Gaussian, Inc.),
 the Gaussian 90(TM) system (copyright 1990, Gaussian, Inc.),
 the Gaussian 88(TM) system (copyright 1988, Gaussian, Inc.),
 the Gaussian 86(TM) system (copyright 1986, Carnegie Mellon
 University), and the Gaussian 82(TM) system (copyright 1983,
 Carnegie Mellon University). Gaussian is a federally registered
 trademark of Gaussian, Inc.
  
 This software contains proprietary and confidential information,
 including trade secrets, belonging to Gaussian, Inc.
  
 This software is provided under written license and may be
 used, copied, transmitted, or stored only in accord with that
 written license.
  
 The following legend is applicable only to US Government
 contracts under FAR:
  
                    RESTRICTED RIGHTS LEGEND
  
 Use, reproduction and disclosure by the US Government is
 subject to restrictions as set forth in subparagraphs (a)
 and (c) of the Commercial Computer Software - Restricted
 Rights clause in FAR 52.227-19.
  
 Gaussian, Inc.
 340 Quinnipiac St., Bldg. 40, Wallingford CT 06492
  
  
 ---------------------------------------------------------------
 Warning -- This program may not be used in any manner that
 competes with the business of Gaussian, Inc. or will provide
 assistance to any competitor of Gaussian, Inc.  The licensee
 of this program is prohibited from giving any competitor of
 Gaussian, Inc. access to this program.  By using this program,
 the user acknowledges that Gaussian, Inc. is engaged in the
 business of creating and licensing software in the field of
 computational chemistry and represents and warrants to the
 licensee that it is not a competitor of Gaussian, Inc. and that
 it will not use this program in any manner prohibited above.
 ---------------------------------------------------------------
  

 Cite this work as:
 Gaussian 09, Revision D.01,
 M. J. Frisch, G. W. Trucks, H. B. Schlegel, G. E. Scuseria, 
 M. A. Robb, J. R. Cheeseman, G. Scalmani, V. Barone, B. Mennucci, 
 G. A. Petersson, H. Nakatsuji, M. Caricato, X. Li, H. P. Hratchian, 
 A. F. Izmaylov, J. Bloino, G. Zheng, J. L. Sonnenberg, M. Hada, 
 M. Ehara, K. Toyota, R. Fukuda, J. Hasegawa, M. Ishida, T. Nakajima, 
 Y. Honda, O. Kitao, H. Nakai, T. Vreven, J. A. Montgomery, Jr., 
 J. E. Peralta, F. Ogliaro, M. Bearpark, J. J. Heyd, E. Brothers, 
 K. N. Kudin, V. N. Staroverov, T. Keith, R. Kobayashi, J. Normand, 
 K. Raghavachari, A. Rendell, J. C. Burant, S. S. Iyengar, J. Tomasi, 
 M. Cossi, N. Rega, J. M. Millam, M. Klene, J. E. Knox, J. B. Cross, 
 V. Bakken, C. Adamo, J. Jaramillo, R. Gomperts, R. E. Stratmann, 
 O. Yazyev, A. J. Austin, R. Cammi, C. Pomelli, J. W. Ochterski, 
 R. L. Martin, K. Morokuma, V. G. Zakrzewski, G. A. Voth, 
 P. Salvador, J. J. Dannenberg, S. Dapprich, A. D. Daniels, 
 O. Farkas, J. B. Foresman, J. V. Ortiz, J. Cioslowski, 
 and D. J. Fox, Gaussian, Inc., Wallingford CT, 2013.
 
 ******************************************
 Gaussian 09:  AS64L-G09RevD.01 24-Apr-2013
                 8-Dec-2018 
 ******************************************
 %Chk=CH400163
 %Mem=2GB
 %NProcShared=16
 Will use up to   16 processors via shared memory.
 ---------------------------------------------
 #T M05/Gen test Massage SCF=(tight,maxcyc=40)
 ---------------------------------------------
 -------
 M05 opt
 -------
 Symbolic Z-matrix:
 Charge =  0 Multiplicity = 1
 6                     0.        0.        0. 
 1                     1.03359   0.        0.39709 
 1                    -0.48256  -0.97038   0.22692 
 1                    -0.57689   0.81851   0.47247 
 1                     0.02586   0.15187  -1.09647 
 6-Bq                  0.        0.        2.85417 
 1-Bq                  0.80242   0.31875   2.16098 
 1-Bq                  0.36509  -0.83576   3.48202 
 1-Bq                 -0.28715   0.85049   3.50239 
 1-Bq                 -0.88035  -0.33348   2.27129 
 
                    Distance matrix (angstroms):
                    1          2          3          4          5
     1  C    0.000000
     2  H    1.107243   0.000000
     3  H    1.107242   1.808119   0.000000
     4  H    1.107242   1.808119   1.808119   0.000000
     5  H    1.107243   1.808119   1.808119   1.808119   0.000000
     6  C    2.854170   2.665627   2.841997   2.583654   3.953645
     7  H    2.327083   1.807309   2.655863   2.236815   3.352893
     8  H    3.599481   3.265304   3.366353   3.561089   4.696073
     9  H    3.615595   3.480029   3.752660   3.043911   4.662143
    10  H    2.458655   2.699448   2.177917   2.157526   3.521166
                    6          7          8          9         10
     6  C    0.000000
     7  H    1.107243   0.000000
     8  H    1.107242   1.808119   0.000000
     9  H    1.107243   1.808119   1.808119   0.000000
    10  H    1.107243   1.808119   1.808119   1.808119   0.000000
 Symmetry turned off by external request.
 This structure is nearly, but not quite of a higher symmetry.
 Consider Symm=Loose if the higher symmetry is desired.
 Framework group  C1[X(C2H8)]
 Deg. of freedom    24
 Rotational constants (GHZ):     76.6916056      7.0301340      7.0301340
   276 basis functions,   360 primitive gaussians,   310 cartesian basis functions
     5 alpha electrons        5 beta electrons
       nuclear repulsion energy        13.2261670042 Hartrees.
 IMHF & INEx in M05                  614413                  385587
 NAtoms=   10 NActive=   10 NUniq=   10 SFac= 1.00D+00 NAtFMM=   60 NAOKFM=F Big=F
 ExpMin= 2.53D-02 ExpMax= 8.24D+03 ExpMxC= 2.81D+02 IAcc=3 IRadAn=         5 AccDes= 0.00D+00
 Harris functional with IExCor= 1009 and IRadAn=       5 diagonalized for initial guess.
 HarFok:  IExCor= 1009 AccDes= 0.00D+00 IRadAn=         5 IDoV= 1 UseB2=F ITyADJ=14
 ICtDFT=  3500011 ScaDFX=  1.000000  1.000000  1.000000  1.000000
 FoFCou: FMM=F IPFlag=           0 FMFlag=      100000 FMFlg1=           0
         NFxFlg=           0 DoJE=T BraDBF=F KetDBF=T FulRan=T
         wScrn=  0.000000 ICntrl=     500 IOpCl=  0 I1Cent=   200000004 NGrid=           0
         NMat0=    1 NMatS0=      1 NMatT0=    0 NMatD0=    1 NMtDS0=    0 NMtDT0=    0
 Symmetry not used in FoFCou.
 SCF Done:  E(RM05) =  -45.8805283529     A.U. after   10 cycles
            NFock= 10  Conv=0.70D-08     -V/T= 2.0333

 **********************************************************************

            Population analysis using the SCF density.

 **********************************************************************

 Alpha  occ. eigenvalues --  -12.05223  -0.99444  -0.71151  -0.71150  -0.71147
 Alpha virt. eigenvalues --   -0.08957  -0.01731  -0.01729  -0.01724  -0.00606
 Alpha virt. eigenvalues --   -0.00340  -0.00286   0.03353   0.03613   0.04041
 Alpha virt. eigenvalues --    0.05429   0.05872   0.06724   0.07126   0.08156
 Alpha virt. eigenvalues --    0.09006   0.09594   0.11025   0.12147   0.14355
 Alpha virt. eigenvalues --    0.14789   0.17360   0.18584   0.19263   0.19775
 Alpha virt. eigenvalues --    0.20446   0.21142   0.21605   0.22565   0.22860
 Alpha virt. eigenvalues --    0.24744   0.25000   0.25721   0.26412   0.27329
 Alpha virt. eigenvalues --    0.28300   0.28691   0.29519   0.31046   0.33490
 Alpha virt. eigenvalues --    0.33858   0.34655   0.35285   0.36095   0.37154
 Alpha virt. eigenvalues --    0.39149   0.39875   0.41032   0.41264   0.41605
 Alpha virt. eigenvalues --    0.43831   0.44824   0.45069   0.46318   0.46955
 Alpha virt. eigenvalues --    0.51027   0.52763   0.54371   0.54490   0.55048
 Alpha virt. eigenvalues --    0.55519   0.56436   0.57334   0.58044   0.60179
 Alpha virt. eigenvalues --    0.60832   0.62230   0.62830   0.63732   0.67076
 Alpha virt. eigenvalues --    0.67688   0.68878   0.70419   0.71047   0.74431
 Alpha virt. eigenvalues --    0.75504   0.76192   0.77569   0.79716   0.80079
 Alpha virt. eigenvalues --    0.83328   0.84745   0.86329   0.87021   0.89772
 Alpha virt. eigenvalues --    0.91760   0.92180   0.92576   0.93607   0.95441
 Alpha virt. eigenvalues --    0.95859   0.98460   0.99368   1.00509   1.01310
 Alpha virt. eigenvalues --    1.01892   1.03073   1.03471   1.06710   1.07317
 Alpha virt. eigenvalues --    1.08800   1.09961   1.13714   1.14586   1.15554
 Alpha virt. eigenvalues --    1.17172   1.18054   1.20014   1.23230   1.24871
 Alpha virt. eigenvalues --    1.26149   1.27463   1.27646   1.28329   1.29472
 Alpha virt. eigenvalues --    1.30691   1.31831   1.33360   1.34097   1.35006
 Alpha virt. eigenvalues --    1.35473   1.37905   1.40197   1.43513   1.43789
 Alpha virt. eigenvalues --    1.44719   1.46298   1.48408   1.49593   1.49740
 Alpha virt. eigenvalues --    1.53630   1.57148   1.59787   1.63097   1.65133
 Alpha virt. eigenvalues --    1.68200   1.70266   1.72478   1.73975   1.74395
 Alpha virt. eigenvalues --    1.77606   1.79007   1.82419   1.83858   1.86498
 Alpha virt. eigenvalues --    1.87105   1.90512   1.91661   1.94683   1.98978
 Alpha virt. eigenvalues --    2.00303   2.00985   2.03260   2.05398   2.11268
 Alpha virt. eigenvalues --    2.13752   2.19363   2.27768   2.29898   2.32416
 Alpha virt. eigenvalues --    2.43844   2.45453   2.53728   2.58983   2.60630
 Alpha virt. eigenvalues --    2.63047   2.65927   2.66220   2.68838   2.84087
 Alpha virt. eigenvalues --    3.02005   3.03567   3.05220   3.10169   3.14306
 Alpha virt. eigenvalues --    3.16218   3.17893   3.20501   3.23395   3.24699
 Alpha virt. eigenvalues --    3.33426   3.46958   3.47460   3.50397   3.51940
 Alpha virt. eigenvalues --    3.56691   3.59669   3.60206   3.61088   3.64720
 Alpha virt. eigenvalues --    3.72408   3.90572   3.91956   3.92577   3.93913
 Alpha virt. eigenvalues --    3.96152   3.99297   4.03087   4.04119   4.05861
 Alpha virt. eigenvalues --    4.07176   4.09062   4.11561   4.13627   4.17194
 Alpha virt. eigenvalues --    4.17571   4.21331   4.24649   4.29132   4.31282
 Alpha virt. eigenvalues --    4.34155   4.35975   4.37657   4.37690   4.46854
 Alpha virt. eigenvalues --    4.48285   4.49264   4.50464   4.52722   4.54081
 Alpha virt. eigenvalues --    4.55720   4.57307   4.59852   4.71447   4.81428
 Alpha virt. eigenvalues --    4.85638   4.86113   4.87716   4.89343   4.90747
 Alpha virt. eigenvalues --    4.92478   4.93303   4.99032   5.04440   5.07331
 Alpha virt. eigenvalues --    5.08729   5.14591   5.17956   5.18178   5.20571
 Alpha virt. eigenvalues --    5.24709   5.25616   5.29176   5.29873   5.36721
 Alpha virt. eigenvalues --    5.43379   5.44568   5.47290   5.50592   5.59624
 Alpha virt. eigenvalues --    5.67275   5.70266   5.82767   6.07208   6.10935
 Alpha virt. eigenvalues --    6.15473   6.17314   6.18673   6.78826   6.80031
 Alpha virt. eigenvalues --    6.84221   6.98044   7.55995   7.65310   7.65719
 Alpha virt. eigenvalues --    8.04101   8.09795   8.17192  10.34318  15.41083
 Alpha virt. eigenvalues --   53.05529
          Condensed to atoms (all electrons):
 Mulliken charges:
               1
     1  C    0.092152
     2  H    0.177480
     3  H    0.066008
     4  H    0.165051
     5  H   -0.664890
     6  C    0.119728
     7  H   -0.053747
     8  H    0.009561
     9  H    0.030108
    10  H    0.058549
 Sum of Mulliken charges =  -0.00000
 Mulliken charges with hydrogens summed into heavy atoms:
               1
     1  C   -0.164199
     6  C    0.164199
 Electronic spatial extent (au):  <R**2>=             35.5916
 Charge=             -0.0000 electrons
 Dipole moment (field-independent basis, Debye):
    X=             -0.0002    Y=             -0.0005    Z=              0.0002  Tot=              0.0006

 Test job not archived.
 1\1\GINC-CHIMERA-NODE31\SP\RM05\Gen\C2H8\CONNORNM\08-Dec-2018\0\\#T M0
 5/Gen test Massage SCF=(tight,maxcyc=40)\\M05 opt\\0,1\C,0,0.,0.,0.\H,
 0,1.03358982,0.,0.39708695\H,0,-0.48255917,-0.97037659,0.2269182\H,0,-
 0.5768949,0.81850634,0.47246756\H,0,0.02586425,0.15187025,-1.09647272\
 C,0,0.,0.,2.85416994\H,0,0.80241792,0.31874886,2.16098122\H,0,0.365091
 37,-0.83576059,3.48202221\H,0,-0.28715498,0.85049437,3.5023885\H,0,-0.
 88035432,-0.33348263,2.27128782\\Version=AS64L-G09RevD.01\HF=-45.88052
 84\RMSD=6.961e-09\Dipole=-0.0000946,-0.0002011,0.0000772\Quadrupole=-0
 .0005598,-0.0006807,0.0012405,0.0005223,-0.0005793,-0.0004051\PG=C01 [
 X(C2H8)]\\@


 QUANTUM MECHANICS IS BOHRING -- M.S. GORDON
 Job cpu time:       0 days  0 hours 18 minutes 41.8 seconds.
 File lengths (MBytes):  RWF=     41 Int=      0 D2E=      0 Chk=      4 Scr=      1
 Normal termination of Gaussian 09 at Sat Dec  8 15:31:31 2018.
