 Entering Gaussian System, Link 0=/data/szalewicgrp/connornm/opt/Gaussian/g09-M05-par/g09/g09
 AtFile(1): aug-cc-pVTZ.gbs
 Initial command:
 /data/szalewicgrp/connornm/opt/Gaussian/g09-M05-par/g09/l1.exe "/scratch/local/Gau-24931.inp" -scrdir="/scratch/local/"
 Entering Link 1 = /data/szalewicgrp/connornm/opt/Gaussian/g09-M05-par/g09/l1.exe PID=     24932.
  
 Copyright (c) 1988,1990,1992,1993,1995,1998,2003,2009,2013,
            Gaussian, Inc.  All Rights Reserved.
  
 This is part of the Gaussian(R) 09 program.  It is based on
 the Gaussian(R) 03 system (copyright 2003, Gaussian, Inc.),
 the Gaussian(R) 98 system (copyright 1998, Gaussian, Inc.),
 the Gaussian(R) 94 system (copyright 1995, Gaussian, Inc.),
 the Gaussian 92(TM) system (copyright 1992, Gaussian, Inc.),
 the Gaussian 90(TM) system (copyright 1990, Gaussian, Inc.),
 the Gaussian 88(TM) system (copyright 1988, Gaussian, Inc.),
 the Gaussian 86(TM) system (copyright 1986, Carnegie Mellon
 University), and the Gaussian 82(TM) system (copyright 1983,
 Carnegie Mellon University). Gaussian is a federally registered
 trademark of Gaussian, Inc.
  
 This software contains proprietary and confidential information,
 including trade secrets, belonging to Gaussian, Inc.
  
 This software is provided under written license and may be
 used, copied, transmitted, or stored only in accord with that
 written license.
  
 The following legend is applicable only to US Government
 contracts under FAR:
  
                    RESTRICTED RIGHTS LEGEND
  
 Use, reproduction and disclosure by the US Government is
 subject to restrictions as set forth in subparagraphs (a)
 and (c) of the Commercial Computer Software - Restricted
 Rights clause in FAR 52.227-19.
  
 Gaussian, Inc.
 340 Quinnipiac St., Bldg. 40, Wallingford CT 06492
  
  
 ---------------------------------------------------------------
 Warning -- This program may not be used in any manner that
 competes with the business of Gaussian, Inc. or will provide
 assistance to any competitor of Gaussian, Inc.  The licensee
 of this program is prohibited from giving any competitor of
 Gaussian, Inc. access to this program.  By using this program,
 the user acknowledges that Gaussian, Inc. is engaged in the
 business of creating and licensing software in the field of
 computational chemistry and represents and warrants to the
 licensee that it is not a competitor of Gaussian, Inc. and that
 it will not use this program in any manner prohibited above.
 ---------------------------------------------------------------
  

 Cite this work as:
 Gaussian 09, Revision D.01,
 M. J. Frisch, G. W. Trucks, H. B. Schlegel, G. E. Scuseria, 
 M. A. Robb, J. R. Cheeseman, G. Scalmani, V. Barone, B. Mennucci, 
 G. A. Petersson, H. Nakatsuji, M. Caricato, X. Li, H. P. Hratchian, 
 A. F. Izmaylov, J. Bloino, G. Zheng, J. L. Sonnenberg, M. Hada, 
 M. Ehara, K. Toyota, R. Fukuda, J. Hasegawa, M. Ishida, T. Nakajima, 
 Y. Honda, O. Kitao, H. Nakai, T. Vreven, J. A. Montgomery, Jr., 
 J. E. Peralta, F. Ogliaro, M. Bearpark, J. J. Heyd, E. Brothers, 
 K. N. Kudin, V. N. Staroverov, T. Keith, R. Kobayashi, J. Normand, 
 K. Raghavachari, A. Rendell, J. C. Burant, S. S. Iyengar, J. Tomasi, 
 M. Cossi, N. Rega, J. M. Millam, M. Klene, J. E. Knox, J. B. Cross, 
 V. Bakken, C. Adamo, J. Jaramillo, R. Gomperts, R. E. Stratmann, 
 O. Yazyev, A. J. Austin, R. Cammi, C. Pomelli, J. W. Ochterski, 
 R. L. Martin, K. Morokuma, V. G. Zakrzewski, G. A. Voth, 
 P. Salvador, J. J. Dannenberg, S. Dapprich, A. D. Daniels, 
 O. Farkas, J. B. Foresman, J. V. Ortiz, J. Cioslowski, 
 and D. J. Fox, Gaussian, Inc., Wallingford CT, 2013.
 
 ******************************************
 Gaussian 09:  AS64L-G09RevD.01 24-Apr-2013
                 7-Dec-2018 
 ******************************************
 %Chk=CH400062
 %Mem=2GB
 %NProcShared=16
 Will use up to   16 processors via shared memory.
 ---------------------------------------------
 #T M05/Gen test Massage SCF=(tight,maxcyc=40)
 ---------------------------------------------
 -------
 M05 opt
 -------
 Symbolic Z-matrix:
 Charge =  0 Multiplicity = 1
 6                     0.        0.        0. 
 1                     0.85382   0.       -0.70497 
 1                    -0.86715  -0.50259  -0.47056 
 1                     0.28379  -0.54109   0.9234 
 1                    -0.27046   1.04368   0.25213 
 6-Bq                  0.        0.        3.27633 
 1-Bq                 -0.83267   0.37764   2.65181 
 1-Bq                  0.2824    0.77026   4.01993 
 1-Bq                 -0.32075  -0.92029   3.80186 
 1-Bq                  0.87102  -0.22761   2.63174 
 
                    Distance matrix (angstroms):
                    1          2          3          4          5
     1  C    0.000000
     2  H    1.107243   0.000000
     3  H    1.107243   1.808119   0.000000
     4  H    1.107243   1.808119   1.808119   0.000000
     5  H    1.107243   1.808119   1.808119   1.808119   0.000000
     6  C    3.276335   4.071826   3.878633   2.430967   3.210646
     7  H    2.805001   3.775552   3.244255   2.253425   2.553071
     8  H    4.102790   4.821251   4.806886   3.362754   3.817950
     9  H    3.924788   4.747424   4.327429   2.965600   4.057132
    10  H    2.781464   3.344505   3.566672   1.833446   2.929457
                    6          7          8          9         10
     6  C    0.000000
     7  H    1.107243   0.000000
     8  H    1.107243   1.808119   0.000000
     9  H    1.107242   1.808119   1.808119   0.000000
    10  H    1.107243   1.808119   1.808119   1.808119   0.000000
 Symmetry turned off by external request.
 This structure is nearly, but not quite of a higher symmetry.
 Consider Symm=Loose if the higher symmetry is desired.
 Framework group  C1[X(C2H8)]
 Deg. of freedom    24
 Rotational constants (GHZ):     76.6916054      5.4557304      5.4557304
   276 basis functions,   360 primitive gaussians,   310 cartesian basis functions
     5 alpha electrons        5 beta electrons
       nuclear repulsion energy        13.2261669647 Hartrees.
 IMHF & INEx in M05                  614413                  385587
 NAtoms=   10 NActive=   10 NUniq=   10 SFac= 1.00D+00 NAtFMM=   60 NAOKFM=F Big=F
 ExpMin= 2.53D-02 ExpMax= 8.24D+03 ExpMxC= 2.81D+02 IAcc=3 IRadAn=         5 AccDes= 0.00D+00
 Harris functional with IExCor= 1009 and IRadAn=       5 diagonalized for initial guess.
 HarFok:  IExCor= 1009 AccDes= 0.00D+00 IRadAn=         5 IDoV= 1 UseB2=F ITyADJ=14
 ICtDFT=  3500011 ScaDFX=  1.000000  1.000000  1.000000  1.000000
 FoFCou: FMM=F IPFlag=           0 FMFlag=      100000 FMFlg1=           0
         NFxFlg=           0 DoJE=T BraDBF=F KetDBF=T FulRan=T
         wScrn=  0.000000 ICntrl=     500 IOpCl=  0 I1Cent=   200000004 NGrid=           0
         NMat0=    1 NMatS0=      1 NMatT0=    0 NMatD0=    1 NMtDS0=    0 NMtDT0=    0
 Symmetry not used in FoFCou.
 SCF Done:  E(RM05) =  -40.9122678037     A.U. after    7 cycles
            NFock=  7  Conv=0.49D-08     -V/T= 2.0127

 **********************************************************************

            Population analysis using the SCF density.

 **********************************************************************

 Alpha  occ. eigenvalues --  -10.74529  -0.82768  -0.48753  -0.48752  -0.48752
 Alpha virt. eigenvalues --   -0.00119   0.02429   0.02671   0.02792   0.04876
 Alpha virt. eigenvalues --    0.05008   0.05542   0.06723   0.08016   0.09150
 Alpha virt. eigenvalues --    0.10197   0.10720   0.11197   0.11616   0.11660
 Alpha virt. eigenvalues --    0.12514   0.15079   0.16064   0.16619   0.19526
 Alpha virt. eigenvalues --    0.20571   0.22105   0.23279   0.25246   0.25944
 Alpha virt. eigenvalues --    0.26356   0.27910   0.28072   0.28646   0.29211
 Alpha virt. eigenvalues --    0.30316   0.30627   0.30802   0.31113   0.32546
 Alpha virt. eigenvalues --    0.32620   0.33202   0.34752   0.36064   0.36530
 Alpha virt. eigenvalues --    0.37182   0.38531   0.39485   0.41597   0.42013
 Alpha virt. eigenvalues --    0.43000   0.43720   0.44244   0.45684   0.47112
 Alpha virt. eigenvalues --    0.47454   0.49679   0.51337   0.52025   0.52560
 Alpha virt. eigenvalues --    0.54516   0.56059   0.56832   0.58921   0.62916
 Alpha virt. eigenvalues --    0.64548   0.65222   0.67057   0.68621   0.69748
 Alpha virt. eigenvalues --    0.72070   0.72756   0.73713   0.75820   0.78458
 Alpha virt. eigenvalues --    0.79177   0.80815   0.84457   0.85206   0.86322
 Alpha virt. eigenvalues --    0.88582   0.89557   0.89886   0.92455   0.92537
 Alpha virt. eigenvalues --    0.94140   0.95776   0.96802   0.97527   0.98388
 Alpha virt. eigenvalues --    0.98807   1.00236   1.01630   1.02243   1.02872
 Alpha virt. eigenvalues --    1.04065   1.04977   1.06235   1.06629   1.07219
 Alpha virt. eigenvalues --    1.08097   1.08811   1.11968   1.12857   1.13330
 Alpha virt. eigenvalues --    1.14314   1.16203   1.17619   1.19239   1.20097
 Alpha virt. eigenvalues --    1.20592   1.24140   1.25097   1.26901   1.27232
 Alpha virt. eigenvalues --    1.30315   1.32100   1.32504   1.35948   1.37632
 Alpha virt. eigenvalues --    1.39768   1.41110   1.43093   1.44616   1.45576
 Alpha virt. eigenvalues --    1.47133   1.48589   1.50583   1.51593   1.53561
 Alpha virt. eigenvalues --    1.55572   1.58075   1.61602   1.63331   1.66530
 Alpha virt. eigenvalues --    1.68125   1.68841   1.69830   1.74608   1.76063
 Alpha virt. eigenvalues --    1.76720   1.79262   1.82586   1.83740   1.87777
 Alpha virt. eigenvalues --    1.88960   1.90659   1.93139   1.94994   1.97976
 Alpha virt. eigenvalues --    1.99569   2.00157   2.00607   2.02786   2.03049
 Alpha virt. eigenvalues --    2.07452   2.08121   2.11847   2.15018   2.19111
 Alpha virt. eigenvalues --    2.22254   2.30790   2.31587   2.35155   2.44655
 Alpha virt. eigenvalues --    2.48090   2.51831   2.65453   2.65909   2.68197
 Alpha virt. eigenvalues --    2.75430   2.80776   2.94910   2.97055   3.01274
 Alpha virt. eigenvalues --    3.23465   3.26885   3.26945   3.28892   3.30295
 Alpha virt. eigenvalues --    3.31682   3.34035   3.42772   3.59417   3.60305
 Alpha virt. eigenvalues --    3.64783   3.70505   3.71940   3.74182   3.75223
 Alpha virt. eigenvalues --    3.77001   3.80064   3.82042   3.84360   3.85986
 Alpha virt. eigenvalues --    3.88787   3.96286   3.97113   4.00756   4.07089
 Alpha virt. eigenvalues --    4.07751   4.15358   4.18839   4.20826   4.23466
 Alpha virt. eigenvalues --    4.25140   4.26474   4.31498   4.33941   4.34738
 Alpha virt. eigenvalues --    4.36149   4.40280   4.42728   4.42965   4.44502
 Alpha virt. eigenvalues --    4.45013   4.47232   4.47761   4.51007   4.52964
 Alpha virt. eigenvalues --    4.55024   4.57644   4.58286   4.59591   4.68703
 Alpha virt. eigenvalues --    4.73639   4.78022   4.80091   4.80904   4.85669
 Alpha virt. eigenvalues --    4.85876   4.90198   4.93061   4.99299   5.10467
 Alpha virt. eigenvalues --    5.13458   5.15130   5.17130   5.19302   5.24713
 Alpha virt. eigenvalues --    5.25276   5.26049   5.29785   5.31447   5.33002
 Alpha virt. eigenvalues --    5.34478   5.38442   5.44966   5.45403   5.49193
 Alpha virt. eigenvalues --    5.52459   5.53906   5.60908   5.64809   5.79320
 Alpha virt. eigenvalues --    6.08093   6.08762   6.09431   6.10261   6.13954
 Alpha virt. eigenvalues --    6.17824   6.18996   6.21096   6.77863   6.79459
 Alpha virt. eigenvalues --    6.82025   6.96107   7.58969   7.62597   7.64054
 Alpha virt. eigenvalues --    8.01478   8.03244   8.11090  10.25358  16.95170
 Alpha virt. eigenvalues --   52.26433
          Condensed to atoms (all electrons):
 Mulliken charges:
               1
     1  C   -1.921377
     2  H    0.403278
     3  H    0.431319
     4  H    0.604481
     5  H    0.450523
     6  C    0.008424
     7  H    0.017138
     8  H   -0.001187
     9  H    0.004358
    10  H    0.003043
 Sum of Mulliken charges =  -0.00000
 Mulliken charges with hydrogens summed into heavy atoms:
               1
     1  C   -0.031776
     6  C    0.031776
 Electronic spatial extent (au):  <R**2>=             36.5416
 Charge=             -0.0000 electrons
 Dipole moment (field-independent basis, Debye):
    X=             -0.0000    Y=             -0.0002    Z=              0.0002  Tot=              0.0002

 Test job not archived.
 1\1\GINC-CHIMERA-NODE15\SP\RM05\Gen\C2H8\CONNORNM\07-Dec-2018\0\\#T M0
 5/Gen test Massage SCF=(tight,maxcyc=40)\\M05 opt\\0,1\C,0,0.,0.,0.\H,
 0,0.85381971,0.,-0.70496657\H,0,-0.86715396,-0.50259373,-0.47056297\H,
 0,0.2837907,-0.54108791,0.92340277\H,0,-0.27045645,1.04368164,0.252126
 77\C,0,0.,0.,3.27633452\H,0,-0.83267198,0.37763607,2.65180723\H,0,0.28
 239893,0.77026223,4.0199291\H,0,-0.32074767,-0.92028698,3.80186164\H,0
 ,0.87102072,-0.22761132,2.63174011\\Version=AS64L-G09RevD.01\HF=-40.91
 22678\RMSD=4.864e-09\Dipole=-0.0000094,-0.000073,0.0000608\Quadrupole=
 0.000013,0.000434,-0.000447,-0.0002712,-0.0002099,-0.0001259\PG=C01 [X
 (C2H8)]\\@


 A ROPE OVER THE TOP OF A FENCE HAS THE SAME LENGTH ON EACH SIDE.
 WEIGHS 1/3 POUND PER FOOT.  ON ONE END HANGS A MONKEY HOLDING A
 BANANA, AND ON THE OTHER END A WEIGHT EQUAL TO THE WEIGHT
 OF THE MONKEY.  THE BANANA WEIGHS TWO OUNCES PER INCH.
 THE ROPE IS AS LONG AS THE AGE OF THE MONKEY, 
 AND THE WEIGHT OF THE MONKEY (IN OUNCES) IS AS MUCH
 AS THE AGE OF THE MONKEY'S MOTHER.  THE COMBINED AGES OF MONKEY
 AND MOTHER ARE THIRTY YEARS.  HALF THE WEIGHT OF THE MONKEY,
  PLUS THE WEIGHT OF THE BANANA, IS ONE FOURTH AS MUCH AS THE WEIGHT
 OF THE WEIGHT AND THE ROPE.
 THE MONKEY'S MOTHER IS HALF AS OLD AS THE MONKEY WILL BE
 WHEN IT IS 3 TIMES AS OLD AS ITS MOTHER WAS WHEN
 SHE WAS HALF AS OLD AS THE MONKEY WILL BE WHEN IT IS
 AS OLD AS ITS MOTHER WILL BE WHEN SHE IS 4 TIMES AS
 OLD AS THE MONKEY WAS WHEN IT WAS TWICE AS OLD AS 
 ITS MOTHER WAS WHEN SHE WAS ONE THIRD AS OLD AS THE
 MONKEY WAS WHEN IT WAS AS OLD AS ITS MOTHER WAS WHEN 
 SHE WAS 3 TIMES AS OLD AS THE MONKEY WAS WHEN IT WAS AS OLD AS ITS
 MOTHER WAS WHEN SHE WAS 3 TIMES AS OLD AS THE MONKEY 
 WAS WHEN IT WAS ONE FOURTH WAS OLD AS IT IS NOW.

 HOW LONG IS THE BANANA?
 Job cpu time:       0 days  0 hours 12 minutes 47.3 seconds.
 File lengths (MBytes):  RWF=     41 Int=      0 D2E=      0 Chk=      4 Scr=      1
 Normal termination of Gaussian 09 at Fri Dec  7 22:04:50 2018.
