 Entering Gaussian System, Link 0=/data/szalewicgrp/connornm/opt/Gaussian/g09-M05-par/g09/g09
 AtFile(1): aug-cc-pVTZ.gbs
 Initial command:
 /data/szalewicgrp/connornm/opt/Gaussian/g09-M05-par/g09/l1.exe "/scratch/local/Gau-11488.inp" -scrdir="/scratch/local/"
 Entering Link 1 = /data/szalewicgrp/connornm/opt/Gaussian/g09-M05-par/g09/l1.exe PID=     11489.
  
 Copyright (c) 1988,1990,1992,1993,1995,1998,2003,2009,2013,
            Gaussian, Inc.  All Rights Reserved.
  
 This is part of the Gaussian(R) 09 program.  It is based on
 the Gaussian(R) 03 system (copyright 2003, Gaussian, Inc.),
 the Gaussian(R) 98 system (copyright 1998, Gaussian, Inc.),
 the Gaussian(R) 94 system (copyright 1995, Gaussian, Inc.),
 the Gaussian 92(TM) system (copyright 1992, Gaussian, Inc.),
 the Gaussian 90(TM) system (copyright 1990, Gaussian, Inc.),
 the Gaussian 88(TM) system (copyright 1988, Gaussian, Inc.),
 the Gaussian 86(TM) system (copyright 1986, Carnegie Mellon
 University), and the Gaussian 82(TM) system (copyright 1983,
 Carnegie Mellon University). Gaussian is a federally registered
 trademark of Gaussian, Inc.
  
 This software contains proprietary and confidential information,
 including trade secrets, belonging to Gaussian, Inc.
  
 This software is provided under written license and may be
 used, copied, transmitted, or stored only in accord with that
 written license.
  
 The following legend is applicable only to US Government
 contracts under FAR:
  
                    RESTRICTED RIGHTS LEGEND
  
 Use, reproduction and disclosure by the US Government is
 subject to restrictions as set forth in subparagraphs (a)
 and (c) of the Commercial Computer Software - Restricted
 Rights clause in FAR 52.227-19.
  
 Gaussian, Inc.
 340 Quinnipiac St., Bldg. 40, Wallingford CT 06492
  
  
 ---------------------------------------------------------------
 Warning -- This program may not be used in any manner that
 competes with the business of Gaussian, Inc. or will provide
 assistance to any competitor of Gaussian, Inc.  The licensee
 of this program is prohibited from giving any competitor of
 Gaussian, Inc. access to this program.  By using this program,
 the user acknowledges that Gaussian, Inc. is engaged in the
 business of creating and licensing software in the field of
 computational chemistry and represents and warrants to the
 licensee that it is not a competitor of Gaussian, Inc. and that
 it will not use this program in any manner prohibited above.
 ---------------------------------------------------------------
  

 Cite this work as:
 Gaussian 09, Revision D.01,
 M. J. Frisch, G. W. Trucks, H. B. Schlegel, G. E. Scuseria, 
 M. A. Robb, J. R. Cheeseman, G. Scalmani, V. Barone, B. Mennucci, 
 G. A. Petersson, H. Nakatsuji, M. Caricato, X. Li, H. P. Hratchian, 
 A. F. Izmaylov, J. Bloino, G. Zheng, J. L. Sonnenberg, M. Hada, 
 M. Ehara, K. Toyota, R. Fukuda, J. Hasegawa, M. Ishida, T. Nakajima, 
 Y. Honda, O. Kitao, H. Nakai, T. Vreven, J. A. Montgomery, Jr., 
 J. E. Peralta, F. Ogliaro, M. Bearpark, J. J. Heyd, E. Brothers, 
 K. N. Kudin, V. N. Staroverov, T. Keith, R. Kobayashi, J. Normand, 
 K. Raghavachari, A. Rendell, J. C. Burant, S. S. Iyengar, J. Tomasi, 
 M. Cossi, N. Rega, J. M. Millam, M. Klene, J. E. Knox, J. B. Cross, 
 V. Bakken, C. Adamo, J. Jaramillo, R. Gomperts, R. E. Stratmann, 
 O. Yazyev, A. J. Austin, R. Cammi, C. Pomelli, J. W. Ochterski, 
 R. L. Martin, K. Morokuma, V. G. Zakrzewski, G. A. Voth, 
 P. Salvador, J. J. Dannenberg, S. Dapprich, A. D. Daniels, 
 O. Farkas, J. B. Foresman, J. V. Ortiz, J. Cioslowski, 
 and D. J. Fox, Gaussian, Inc., Wallingford CT, 2013.
 
 ******************************************
 Gaussian 09:  AS64L-G09RevD.01 24-Apr-2013
                 8-Dec-2018 
 ******************************************
 %Chk=CH400231
 %Mem=2GB
 %NProcShared=16
 Will use up to   16 processors via shared memory.
 ---------------------------------------------
 #T M05/Gen test Massage SCF=(tight,maxcyc=40)
 ---------------------------------------------
 -------
 M05 opt
 -------
 Symbolic Z-matrix:
 Charge =  0 Multiplicity = 1
 6                     0.        0.        0. 
 1                     1.10522   0.        0.06682 
 1                    -0.38857   0.98902   0.3112 
 1                    -0.30664  -0.20519  -1.04396 
 1                    -0.41002  -0.78383   0.66594 
 6-Bq                  0.        0.        4.93582 
 1-Bq                  0.01274  -0.46498   3.93102 
 1-Bq                  0.72205   0.83897   4.96344 
 1-Bq                 -1.01669   0.38074   5.15345 
 1-Bq                  0.2819   -0.75473   5.69536 
 
                    Distance matrix (angstroms):
                    1          2          3          4          5
     1  C    0.000000
     2  H    1.107243   0.000000
     3  H    1.107243   1.808119   0.000000
     4  H    1.107243   1.808119   1.808119   0.000000
     5  H    1.107243   1.808119   1.808119   1.808119   0.000000
     6  C    4.935819   4.992859   4.745131   5.991154   4.360545
     7  H    3.958448   4.042495   3.921517   4.991991   3.307739
     8  H    5.085369   4.982726   4.785328   6.183637   4.731126
     9  H    5.266562   5.524605   4.920565   6.265415   4.675683
    10  H    5.752063   5.738284   5.699070   6.787258   5.076876
                    6          7          8          9         10
     6  C    0.000000
     7  H    1.107243   0.000000
     8  H    1.107242   1.808119   0.000000
     9  H    1.107242   1.808119   1.808119   0.000000
    10  H    1.107243   1.808119   1.808119   1.808119   0.000000
 Symmetry turned off by external request.
 This structure is nearly, but not quite of a higher symmetry.
 Consider Symm=Loose if the higher symmetry is desired.
 Framework group  C1[X(C2H8)]
 Deg. of freedom    24
 Rotational constants (GHZ):     76.6916056      2.5034934      2.5034934
   276 basis functions,   360 primitive gaussians,   310 cartesian basis functions
     5 alpha electrons        5 beta electrons
       nuclear repulsion energy        13.2261669748 Hartrees.
 IMHF & INEx in M05                  614413                  385587
 NAtoms=   10 NActive=   10 NUniq=   10 SFac= 1.00D+00 NAtFMM=   60 NAOKFM=F Big=F
 ExpMin= 2.53D-02 ExpMax= 8.24D+03 ExpMxC= 2.81D+02 IAcc=3 IRadAn=         5 AccDes= 0.00D+00
 Harris functional with IExCor= 1009 and IRadAn=       5 diagonalized for initial guess.
 HarFok:  IExCor= 1009 AccDes= 0.00D+00 IRadAn=         5 IDoV= 1 UseB2=F ITyADJ=14
 ICtDFT=  3500011 ScaDFX=  1.000000  1.000000  1.000000  1.000000
 FoFCou: FMM=F IPFlag=           0 FMFlag=      100000 FMFlg1=           0
         NFxFlg=           0 DoJE=T BraDBF=F KetDBF=T FulRan=T
         wScrn=  0.000000 ICntrl=     500 IOpCl=  0 I1Cent=   200000004 NGrid=           0
         NMat0=    1 NMatS0=      1 NMatT0=    0 NMatD0=    1 NMtDS0=    0 NMtDT0=    0
 Symmetry not used in FoFCou.
 SCF Done:  E(RM05) =  -44.2930393290     A.U. after   10 cycles
            NFock= 10  Conv=0.80D-09     -V/T= 2.0247

 **********************************************************************

            Population analysis using the SCF density.

 **********************************************************************

 Alpha  occ. eigenvalues --  -11.62240  -0.92992  -0.62332  -0.62330  -0.62330
 Alpha virt. eigenvalues --   -0.06496  -0.00228  -0.00138  -0.00133   0.02177
 Alpha virt. eigenvalues --    0.02885   0.03002   0.03250   0.04545   0.04703
 Alpha virt. eigenvalues --    0.06229   0.06951   0.07270   0.08628   0.09173
 Alpha virt. eigenvalues --    0.09339   0.10351   0.10997   0.11653   0.12658
 Alpha virt. eigenvalues --    0.14065   0.19049   0.19748   0.20582   0.20834
 Alpha virt. eigenvalues --    0.21601   0.21840   0.22520   0.22632   0.23702
 Alpha virt. eigenvalues --    0.24369   0.24811   0.25694   0.25965   0.27068
 Alpha virt. eigenvalues --    0.27916   0.28191   0.28723   0.29999   0.30164
 Alpha virt. eigenvalues --    0.30482   0.31130   0.33962   0.35473   0.35762
 Alpha virt. eigenvalues --    0.36715   0.37169   0.37787   0.38633   0.40042
 Alpha virt. eigenvalues --    0.40777   0.41934   0.44837   0.46230   0.47120
 Alpha virt. eigenvalues --    0.47980   0.49456   0.50727   0.52293   0.55849
 Alpha virt. eigenvalues --    0.56364   0.57787   0.60375   0.60985   0.63498
 Alpha virt. eigenvalues --    0.65283   0.66078   0.67093   0.67216   0.68339
 Alpha virt. eigenvalues --    0.69278   0.69889   0.73849   0.74807   0.75872
 Alpha virt. eigenvalues --    0.76358   0.76959   0.79212   0.81469   0.81785
 Alpha virt. eigenvalues --    0.82270   0.83201   0.86221   0.87097   0.87845
 Alpha virt. eigenvalues --    0.90474   0.91864   0.93351   0.93905   0.94194
 Alpha virt. eigenvalues --    0.94550   0.96201   0.96921   0.98191   0.99340
 Alpha virt. eigenvalues --    1.00131   1.02134   1.03008   1.03883   1.04275
 Alpha virt. eigenvalues --    1.06158   1.06934   1.08086   1.08760   1.09308
 Alpha virt. eigenvalues --    1.09897   1.10412   1.10941   1.13891   1.17817
 Alpha virt. eigenvalues --    1.18844   1.22869   1.23347   1.24362   1.25049
 Alpha virt. eigenvalues --    1.25835   1.31754   1.32160   1.32634   1.34127
 Alpha virt. eigenvalues --    1.34280   1.35022   1.36487   1.37635   1.38598
 Alpha virt. eigenvalues --    1.38676   1.39233   1.41761   1.42859   1.44473
 Alpha virt. eigenvalues --    1.48318   1.52370   1.53494   1.54240   1.57144
 Alpha virt. eigenvalues --    1.61871   1.62729   1.65894   1.70158   1.70295
 Alpha virt. eigenvalues --    1.72998   1.80763   1.81400   1.83022   1.83721
 Alpha virt. eigenvalues --    1.83853   1.85623   1.92175   1.94940   1.95287
 Alpha virt. eigenvalues --    2.01741   2.02870   2.04548   2.04764   2.05529
 Alpha virt. eigenvalues --    2.08036   2.19888   2.25439   2.26116   2.32323
 Alpha virt. eigenvalues --    2.40631   2.45024   2.45876   2.60199   2.61584
 Alpha virt. eigenvalues --    2.62259   2.68035   2.69049   2.73392   2.81733
 Alpha virt. eigenvalues --    3.04026   3.04893   3.08813   3.09205   3.09818
 Alpha virt. eigenvalues --    3.10129   3.11154   3.12868   3.34950   3.34998
 Alpha virt. eigenvalues --    3.35779   3.53398   3.53852   3.54596   3.56416
 Alpha virt. eigenvalues --    3.57064   3.58623   3.61147   3.65209   3.67161
 Alpha virt. eigenvalues --    3.69846   3.99687   3.99912   4.00307   4.01142
 Alpha virt. eigenvalues --    4.01382   4.02768   4.03438   4.04738   4.05889
 Alpha virt. eigenvalues --    4.12217   4.13042   4.14556   4.15239   4.16904
 Alpha virt. eigenvalues --    4.17405   4.20023   4.29539   4.29681   4.30031
 Alpha virt. eigenvalues --    4.36361   4.36992   4.37309   4.41219   4.41733
 Alpha virt. eigenvalues --    4.44112   4.47541   4.53148   4.53703   4.58286
 Alpha virt. eigenvalues --    4.58379   4.58643   4.60090   4.61938   4.62686
 Alpha virt. eigenvalues --    4.77192   4.92463   4.92521   4.92766   4.96757
 Alpha virt. eigenvalues --    4.98742   4.99098   4.99815   5.13309   5.13404
 Alpha virt. eigenvalues --    5.16033   5.16340   5.16669   5.29209   5.29843
 Alpha virt. eigenvalues --    5.30110   5.30488   5.31318   5.32080   5.41675
 Alpha virt. eigenvalues --    5.42645   5.47754   5.48737   5.49431   5.52656
 Alpha virt. eigenvalues --    5.75752   5.77314   5.79630   6.14307   6.14367
 Alpha virt. eigenvalues --    6.15371   6.25037   6.25043   6.80664   6.80964
 Alpha virt. eigenvalues --    6.85960   6.98060   7.66363   7.66420   7.67719
 Alpha virt. eigenvalues --    8.02191   8.03674   8.07623  10.30383  15.44226
 Alpha virt. eigenvalues --   52.24986
          Condensed to atoms (all electrons):
 Mulliken charges:
               1
     1  C   -0.675492
     2  H    0.182579
     3  H    0.180870
     4  H    0.098065
     5  H    0.213363
     6  C   -0.001044
     7  H    0.002016
     8  H    0.000119
     9  H   -0.000372
    10  H   -0.000105
 Sum of Mulliken charges =  -0.00000
 Mulliken charges with hydrogens summed into heavy atoms:
               1
     1  C   -0.000614
     6  C    0.000614
 Electronic spatial extent (au):  <R**2>=             36.3389
 Charge=             -0.0000 electrons
 Dipole moment (field-independent basis, Debye):
    X=              0.0001    Y=              0.0001    Z=             -0.0003  Tot=              0.0004

 Test job not archived.
 1\1\GINC-CHIMERA-NODE31\SP\RM05\Gen\C2H8\CONNORNM\08-Dec-2018\0\\#T M0
 5/Gen test Massage SCF=(tight,maxcyc=40)\\M05 opt\\0,1\C,0,0.,0.,0.\H,
 0,1.10522421,0.,0.06682367\H,0,-0.38857034,0.98901727,0.31119751\H,0,-
 0.30663509,-0.20518597,-1.04396341\H,0,-0.41001878,-0.7838313,0.665942
 23\C,0,0.,0.,4.93581916\H,0,0.01273771,-0.46498099,3.93102247\H,0,0.72
 204917,0.83896838,4.96344155\H,0,-1.01669106,0.38073836,5.15345082\H,0
 ,0.28190418,-0.75472576,5.6953618\\Version=AS64L-G09RevD.01\HF=-44.293
 0393\RMSD=8.044e-10\Dipole=0.0000355,0.0000434,-0.0001339\Quadrupole=-
 0.0002608,0.0002236,0.0000372,0.00077,0.0008746,0.0009944\PG=C01 [X(C2
 H8)]\\@


 IT IS IMPOSSIBLE TO MEDITATE ON TIME AND THE MYSTERY 
 OF NATURE WITHOUT AN OVERWHELMING EMOTION AT THE
 LIMITATIONS OF HUMAN INTELLIGENCE.

                                         -- ALFRED NORTH WHITEHEAD
 Job cpu time:       0 days  0 hours 13 minutes 45.8 seconds.
 File lengths (MBytes):  RWF=     41 Int=      0 D2E=      0 Chk=      4 Scr=      1
 Normal termination of Gaussian 09 at Sat Dec  8 13:21:39 2018.
