 Entering Gaussian System, Link 0=/data/szalewicgrp/connornm/opt/Gaussian/g09-M05-par/g09/g09
 AtFile(1): aug-cc-pVTZ.gbs
 Initial command:
 /data/szalewicgrp/connornm/opt/Gaussian/g09-M05-par/g09/l1.exe "/scratch/local/Gau-22485.inp" -scrdir="/scratch/local/"
 Entering Link 1 = /data/szalewicgrp/connornm/opt/Gaussian/g09-M05-par/g09/l1.exe PID=     22486.
  
 Copyright (c) 1988,1990,1992,1993,1995,1998,2003,2009,2013,
            Gaussian, Inc.  All Rights Reserved.
  
 This is part of the Gaussian(R) 09 program.  It is based on
 the Gaussian(R) 03 system (copyright 2003, Gaussian, Inc.),
 the Gaussian(R) 98 system (copyright 1998, Gaussian, Inc.),
 the Gaussian(R) 94 system (copyright 1995, Gaussian, Inc.),
 the Gaussian 92(TM) system (copyright 1992, Gaussian, Inc.),
 the Gaussian 90(TM) system (copyright 1990, Gaussian, Inc.),
 the Gaussian 88(TM) system (copyright 1988, Gaussian, Inc.),
 the Gaussian 86(TM) system (copyright 1986, Carnegie Mellon
 University), and the Gaussian 82(TM) system (copyright 1983,
 Carnegie Mellon University). Gaussian is a federally registered
 trademark of Gaussian, Inc.
  
 This software contains proprietary and confidential information,
 including trade secrets, belonging to Gaussian, Inc.
  
 This software is provided under written license and may be
 used, copied, transmitted, or stored only in accord with that
 written license.
  
 The following legend is applicable only to US Government
 contracts under FAR:
  
                    RESTRICTED RIGHTS LEGEND
  
 Use, reproduction and disclosure by the US Government is
 subject to restrictions as set forth in subparagraphs (a)
 and (c) of the Commercial Computer Software - Restricted
 Rights clause in FAR 52.227-19.
  
 Gaussian, Inc.
 340 Quinnipiac St., Bldg. 40, Wallingford CT 06492
  
  
 ---------------------------------------------------------------
 Warning -- This program may not be used in any manner that
 competes with the business of Gaussian, Inc. or will provide
 assistance to any competitor of Gaussian, Inc.  The licensee
 of this program is prohibited from giving any competitor of
 Gaussian, Inc. access to this program.  By using this program,
 the user acknowledges that Gaussian, Inc. is engaged in the
 business of creating and licensing software in the field of
 computational chemistry and represents and warrants to the
 licensee that it is not a competitor of Gaussian, Inc. and that
 it will not use this program in any manner prohibited above.
 ---------------------------------------------------------------
  

 Cite this work as:
 Gaussian 09, Revision D.01,
 M. J. Frisch, G. W. Trucks, H. B. Schlegel, G. E. Scuseria, 
 M. A. Robb, J. R. Cheeseman, G. Scalmani, V. Barone, B. Mennucci, 
 G. A. Petersson, H. Nakatsuji, M. Caricato, X. Li, H. P. Hratchian, 
 A. F. Izmaylov, J. Bloino, G. Zheng, J. L. Sonnenberg, M. Hada, 
 M. Ehara, K. Toyota, R. Fukuda, J. Hasegawa, M. Ishida, T. Nakajima, 
 Y. Honda, O. Kitao, H. Nakai, T. Vreven, J. A. Montgomery, Jr., 
 J. E. Peralta, F. Ogliaro, M. Bearpark, J. J. Heyd, E. Brothers, 
 K. N. Kudin, V. N. Staroverov, T. Keith, R. Kobayashi, J. Normand, 
 K. Raghavachari, A. Rendell, J. C. Burant, S. S. Iyengar, J. Tomasi, 
 M. Cossi, N. Rega, J. M. Millam, M. Klene, J. E. Knox, J. B. Cross, 
 V. Bakken, C. Adamo, J. Jaramillo, R. Gomperts, R. E. Stratmann, 
 O. Yazyev, A. J. Austin, R. Cammi, C. Pomelli, J. W. Ochterski, 
 R. L. Martin, K. Morokuma, V. G. Zakrzewski, G. A. Voth, 
 P. Salvador, J. J. Dannenberg, S. Dapprich, A. D. Daniels, 
 O. Farkas, J. B. Foresman, J. V. Ortiz, J. Cioslowski, 
 and D. J. Fox, Gaussian, Inc., Wallingford CT, 2013.
 
 ******************************************
 Gaussian 09:  AS64L-G09RevD.01 24-Apr-2013
                 7-Dec-2018 
 ******************************************
 %Chk=CH400267
 %Mem=2GB
 %NProcShared=16
 Will use up to   16 processors via shared memory.
 ---------------------------------------------
 #T M05/Gen test Massage SCF=(tight,maxcyc=40)
 ---------------------------------------------
 -------
 M05 opt
 -------
 Symbolic Z-matrix:
 Charge =  0 Multiplicity = 1
 6                     0.        0.        0. 
 1                     0.        0.       -1.10724 
 1                     1.02869  -0.17767   0.36908 
 1                    -0.36047   0.97971   0.36908 
 1                    -0.66821  -0.80203   0.36908 
 6-Bq                  0.        0.        4.08785 
 1-Bq                 0.         0.        2.98061 
 1-Bq                  0.36047  -0.97971   4.45693 
 1-Bq                  0.66821   0.80203   4.45693 
 1-Bq                 -1.02869   0.17767   4.45693 
 
                    Distance matrix (angstroms):
                    1          2          3          4          5
     1  C    0.000000
     2  H    1.107243   0.000000
     3  H    1.107243   1.808119   0.000000
     4  H    1.107243   1.808119   1.808119   0.000000
     5  H    1.107243   1.808119   1.808119   1.808119   0.000000
     6  C    4.087852   5.195094   3.862515   3.862515   3.862515
     7  H    2.980609   4.087852   2.812445   2.812445   2.812445
     8  H    4.577555   5.661255   4.219039   4.590162   4.219040
     9  H    4.577555   5.661255   4.219040   4.219040   4.590163
    10  H    4.577555   5.661255   4.590163   4.219040   4.219040
                    6          7          8          9         10
     6  C    0.000000
     7  H    1.107243   0.000000
     8  H    1.107243   1.808119   0.000000
     9  H    1.107243   1.808119   1.808119   0.000000
    10  H    1.107242   1.808119   1.808119   1.808119   0.000000
 Symmetry turned off by external request.
 Framework group  C3V[C3(CHCH),3SGV(H2)]
 Deg. of freedom     7
 Rotational constants (GHZ):     76.6916054      3.5960944      3.5960944
   276 basis functions,   360 primitive gaussians,   310 cartesian basis functions
     5 alpha electrons        5 beta electrons
       nuclear repulsion energy        13.2261669861 Hartrees.
 IMHF & INEx in M05                  614413                  385587
 NAtoms=   10 NActive=   10 NUniq=   10 SFac= 1.00D+00 NAtFMM=   60 NAOKFM=F Big=F
 ExpMin= 2.53D-02 ExpMax= 8.24D+03 ExpMxC= 2.81D+02 IAcc=3 IRadAn=         5 AccDes= 0.00D+00
 Harris functional with IExCor= 1009 and IRadAn=       5 diagonalized for initial guess.
 HarFok:  IExCor= 1009 AccDes= 0.00D+00 IRadAn=         5 IDoV= 1 UseB2=F ITyADJ=14
 ICtDFT=  3500011 ScaDFX=  1.000000  1.000000  1.000000  1.000000
 FoFCou: FMM=F IPFlag=           0 FMFlag=      100000 FMFlg1=           0
         NFxFlg=           0 DoJE=T BraDBF=F KetDBF=T FulRan=T
         wScrn=  0.000000 ICntrl=     500 IOpCl=  0 I1Cent=   200000004 NGrid=           0
         NMat0=    1 NMatS0=      1 NMatT0=    0 NMatD0=    1 NMtDS0=    0 NMtDT0=    0
 Symmetry not used in FoFCou.
 SCF Done:  E(RM05) =  -45.8800186421     A.U. after   10 cycles
            NFock= 10  Conv=0.58D-08     -V/T= 2.0334

 **********************************************************************

            Population analysis using the SCF density.

 **********************************************************************

 Alpha  occ. eigenvalues --  -12.05215  -0.99433  -0.71141  -0.71140  -0.71140
 Alpha virt. eigenvalues --   -0.08963  -0.01735  -0.01729  -0.01728  -0.00579
 Alpha virt. eigenvalues --   -0.00268  -0.00268   0.02887   0.04123   0.04123
 Alpha virt. eigenvalues --    0.05895   0.05924   0.05924   0.07207   0.08129
 Alpha virt. eigenvalues --    0.08129   0.09444   0.10680   0.12048   0.12049
 Alpha virt. eigenvalues --    0.14459   0.18120   0.18836   0.18836   0.21168
 Alpha virt. eigenvalues --    0.21533   0.21534   0.21689   0.21690   0.22061
 Alpha virt. eigenvalues --    0.24557   0.25167   0.25169   0.25649   0.25718
 Alpha virt. eigenvalues --    0.25719   0.26993   0.28524   0.28525   0.29429
 Alpha virt. eigenvalues --    0.30774   0.30774   0.33070   0.35457   0.36667
 Alpha virt. eigenvalues --    0.36669   0.38182   0.38921   0.40483   0.40484
 Alpha virt. eigenvalues --    0.41629   0.42992   0.42992   0.46261   0.46262
 Alpha virt. eigenvalues --    0.47175   0.50633   0.52368   0.52369   0.57082
 Alpha virt. eigenvalues --    0.57082   0.57798   0.57798   0.58029   0.59292
 Alpha virt. eigenvalues --    0.62968   0.64123   0.64125   0.65755   0.65987
 Alpha virt. eigenvalues --    0.65990   0.69843   0.69845   0.70069   0.71569
 Alpha virt. eigenvalues --    0.71671   0.71674   0.74819   0.76287   0.76289
 Alpha virt. eigenvalues --    0.76730   0.82288   0.82291   0.82361   0.86711
 Alpha virt. eigenvalues --    0.86712   0.91016   0.92098   0.92100   0.93193
 Alpha virt. eigenvalues --    0.93194   0.94452   0.99034   0.99757   0.99757
 Alpha virt. eigenvalues --    1.01008   1.01008   1.04492   1.04890   1.04893
 Alpha virt. eigenvalues --    1.07246   1.07247   1.07937   1.10107   1.11593
 Alpha virt. eigenvalues --    1.11946   1.11947   1.12409   1.16844   1.16844
 Alpha virt. eigenvalues --    1.19130   1.22915   1.22916   1.24546   1.24547
 Alpha virt. eigenvalues --    1.27520   1.28456   1.28457   1.28525   1.30849
 Alpha virt. eigenvalues --    1.30851   1.31869   1.37926   1.37927   1.38362
 Alpha virt. eigenvalues --    1.38363   1.39924   1.44880   1.44882   1.45536
 Alpha virt. eigenvalues --    1.47326   1.47329   1.51079   1.53025   1.54609
 Alpha virt. eigenvalues --    1.59225   1.59226   1.69056   1.69861   1.73523
 Alpha virt. eigenvalues --    1.73524   1.75618   1.76164   1.76164   1.85435
 Alpha virt. eigenvalues --    1.85435   1.86235   1.90401   1.90402   1.94828
 Alpha virt. eigenvalues --    2.02003   2.02003   2.04167   2.06321   2.07842
 Alpha virt. eigenvalues --    2.07842   2.14934   2.29804   2.33179   2.33180
 Alpha virt. eigenvalues --    2.45789   2.45790   2.48259   2.48260   2.48762
 Alpha virt. eigenvalues --    2.53882   2.68257   2.68257   2.73839   2.98285
 Alpha virt. eigenvalues --    2.98726   2.98729   3.00333   3.00334   3.03783
 Alpha virt. eigenvalues --    3.08688   3.08692   3.14415   3.22127   3.22129
 Alpha virt. eigenvalues --    3.29107   3.45155   3.45156   3.46283   3.48063
 Alpha virt. eigenvalues --    3.50683   3.50684   3.54543   3.57931   3.57932
 Alpha virt. eigenvalues --    3.85303   3.90685   3.90686   3.93020   3.99477
 Alpha virt. eigenvalues --    4.00402   4.00404   4.02500   4.02501   4.04056
 Alpha virt. eigenvalues --    4.04057   4.05385   4.08861   4.11126   4.11127
 Alpha virt. eigenvalues --    4.15874   4.15875   4.17472   4.21017   4.21018
 Alpha virt. eigenvalues --    4.32199   4.36067   4.37522   4.37523   4.42918
 Alpha virt. eigenvalues --    4.42919   4.47300   4.48097   4.48098   4.53113
 Alpha virt. eigenvalues --    4.53222   4.53222   4.61196   4.61197   4.69401
 Alpha virt. eigenvalues --    4.79832   4.83510   4.88575   4.90026   4.90027
 Alpha virt. eigenvalues --    4.92254   4.92255   4.93765   5.02502   5.02503
 Alpha virt. eigenvalues --    5.14663   5.14665   5.16327   5.16768   5.16771
 Alpha virt. eigenvalues --    5.17782   5.30461   5.30461   5.31427   5.43612
 Alpha virt. eigenvalues --    5.43613   5.48943   5.50090   5.50090   5.62118
 Alpha virt. eigenvalues --    5.62124   5.63405   5.74538   6.13878   6.14836
 Alpha virt. eigenvalues --    6.14837   6.23997   6.23999   6.80673   6.80674
 Alpha virt. eigenvalues --    6.95921   7.04020   7.66369   7.67226   7.67227
 Alpha virt. eigenvalues --    8.05007   8.05008   8.13671  10.38259  15.26809
 Alpha virt. eigenvalues --   53.01198
          Condensed to atoms (all electrons):
 Mulliken charges:
               1
     1  C    0.600211
     2  H   -0.379241
     3  H   -0.082576
     4  H   -0.082534
     5  H   -0.082700
     6  C   -0.008798
     7  H    0.038481
     8  H   -0.000948
     9  H   -0.000948
    10  H   -0.000948
 Sum of Mulliken charges =  -0.00000
 Mulliken charges with hydrogens summed into heavy atoms:
               1
     1  C   -0.026840
     6  C    0.026840
 Electronic spatial extent (au):  <R**2>=             35.5895
 Charge=             -0.0000 electrons
 Dipole moment (field-independent basis, Debye):
    X=              0.0000    Y=             -0.0000    Z=              0.0005  Tot=              0.0005

 Test job not archived.
 1\1\GINC-CHIMERA-NODE10\SP\RM05\Gen\C2H8\CONNORNM\07-Dec-2018\0\\#T M0
 5/Gen test Massage SCF=(tight,maxcyc=40)\\M05 opt\\0,1\C,0,0.,0.,0.\H,
 0,0.00000002,0.,-1.1072425\H,0,1.02868713,-0.17767408,0.36908085\H,0,-
 0.3604733,0.97970623,0.36908083\H,0,-0.66821384,-0.80203215,0.36908082
 \C,0,0.,0.,4.08785158\H,0,-0.0000001,0.00000024,2.98060908\H,0,0.36047
 353,-0.97970624,4.45693217\H,0,0.6682137,0.80203221,4.45693253\H,0,-1.
 02868713,0.17767379,4.45693255\\Version=AS64L-G09RevD.01\HF=-45.880018
 6\RMSD=5.789e-09\Dipole=0.,-0.0000113,0.0001879\Quadrupole=-0.0001444,
 -0.0001676,0.000312,0.0000138,0.00001,-0.0000028\PG=C03V [C3(C1H1C1H1)
 ,3SGV(H2)]\\@


 NATURE GIVES TO EVERY TIME AND SEASON SOME BEAUTY OF ITS OWN.

                                                    --DICKENS
 Job cpu time:       0 days  0 hours 15 minutes 54.7 seconds.
 File lengths (MBytes):  RWF=     41 Int=      0 D2E=      0 Chk=      4 Scr=      1
 Normal termination of Gaussian 09 at Fri Dec  7 11:47:17 2018.
