 Entering Gaussian System, Link 0=/data/szalewicgrp/connornm/opt/Gaussian/g09-M05-par/g09/g09
 AtFile(1): aug-cc-pVTZ.gbs
 Initial command:
 /data/szalewicgrp/connornm/opt/Gaussian/g09-M05-par/g09/l1.exe "/scratch/local/Gau-838.inp" -scrdir="/scratch/local/"
 Entering Link 1 = /data/szalewicgrp/connornm/opt/Gaussian/g09-M05-par/g09/l1.exe PID=       839.
  
 Copyright (c) 1988,1990,1992,1993,1995,1998,2003,2009,2013,
            Gaussian, Inc.  All Rights Reserved.
  
 This is part of the Gaussian(R) 09 program.  It is based on
 the Gaussian(R) 03 system (copyright 2003, Gaussian, Inc.),
 the Gaussian(R) 98 system (copyright 1998, Gaussian, Inc.),
 the Gaussian(R) 94 system (copyright 1995, Gaussian, Inc.),
 the Gaussian 92(TM) system (copyright 1992, Gaussian, Inc.),
 the Gaussian 90(TM) system (copyright 1990, Gaussian, Inc.),
 the Gaussian 88(TM) system (copyright 1988, Gaussian, Inc.),
 the Gaussian 86(TM) system (copyright 1986, Carnegie Mellon
 University), and the Gaussian 82(TM) system (copyright 1983,
 Carnegie Mellon University). Gaussian is a federally registered
 trademark of Gaussian, Inc.
  
 This software contains proprietary and confidential information,
 including trade secrets, belonging to Gaussian, Inc.
  
 This software is provided under written license and may be
 used, copied, transmitted, or stored only in accord with that
 written license.
  
 The following legend is applicable only to US Government
 contracts under FAR:
  
                    RESTRICTED RIGHTS LEGEND
  
 Use, reproduction and disclosure by the US Government is
 subject to restrictions as set forth in subparagraphs (a)
 and (c) of the Commercial Computer Software - Restricted
 Rights clause in FAR 52.227-19.
  
 Gaussian, Inc.
 340 Quinnipiac St., Bldg. 40, Wallingford CT 06492
  
  
 ---------------------------------------------------------------
 Warning -- This program may not be used in any manner that
 competes with the business of Gaussian, Inc. or will provide
 assistance to any competitor of Gaussian, Inc.  The licensee
 of this program is prohibited from giving any competitor of
 Gaussian, Inc. access to this program.  By using this program,
 the user acknowledges that Gaussian, Inc. is engaged in the
 business of creating and licensing software in the field of
 computational chemistry and represents and warrants to the
 licensee that it is not a competitor of Gaussian, Inc. and that
 it will not use this program in any manner prohibited above.
 ---------------------------------------------------------------
  

 Cite this work as:
 Gaussian 09, Revision D.01,
 M. J. Frisch, G. W. Trucks, H. B. Schlegel, G. E. Scuseria, 
 M. A. Robb, J. R. Cheeseman, G. Scalmani, V. Barone, B. Mennucci, 
 G. A. Petersson, H. Nakatsuji, M. Caricato, X. Li, H. P. Hratchian, 
 A. F. Izmaylov, J. Bloino, G. Zheng, J. L. Sonnenberg, M. Hada, 
 M. Ehara, K. Toyota, R. Fukuda, J. Hasegawa, M. Ishida, T. Nakajima, 
 Y. Honda, O. Kitao, H. Nakai, T. Vreven, J. A. Montgomery, Jr., 
 J. E. Peralta, F. Ogliaro, M. Bearpark, J. J. Heyd, E. Brothers, 
 K. N. Kudin, V. N. Staroverov, T. Keith, R. Kobayashi, J. Normand, 
 K. Raghavachari, A. Rendell, J. C. Burant, S. S. Iyengar, J. Tomasi, 
 M. Cossi, N. Rega, J. M. Millam, M. Klene, J. E. Knox, J. B. Cross, 
 V. Bakken, C. Adamo, J. Jaramillo, R. Gomperts, R. E. Stratmann, 
 O. Yazyev, A. J. Austin, R. Cammi, C. Pomelli, J. W. Ochterski, 
 R. L. Martin, K. Morokuma, V. G. Zakrzewski, G. A. Voth, 
 P. Salvador, J. J. Dannenberg, S. Dapprich, A. D. Daniels, 
 O. Farkas, J. B. Foresman, J. V. Ortiz, J. Cioslowski, 
 and D. J. Fox, Gaussian, Inc., Wallingford CT, 2013.
 
 ******************************************
 Gaussian 09:  AS64L-G09RevD.01 24-Apr-2013
                 8-Dec-2018 
 ******************************************
 %Chk=CH400115
 %Mem=2GB
 %NProcShared=16
 Will use up to   16 processors via shared memory.
 ---------------------------------------------
 #T M05/Gen test Massage SCF=(tight,maxcyc=40)
 ---------------------------------------------
 -------
 M05 opt
 -------
 Symbolic Z-matrix:
 Charge =  0 Multiplicity = 1
 6                     0.        0.        0. 
 1                     1.07878   0.        0.24944 
 1                    -0.55819   0.55912   0.77575 
 1                    -0.15121   0.48389  -0.98436 
 1                    -0.36938  -1.04301  -0.04083 
 6-Bq                  0.        0.        3.30547 
 1-Bq                 -0.16409   0.26658   2.2434 
 1-Bq                  0.33827  -1.05208   3.37391 
 1-Bq                  0.7726    0.66497   3.73779 
 1-Bq                 -0.94678   0.12053   3.86678 
 
                    Distance matrix (angstroms):
                    1          2          3          4          5
     1  C    0.000000
     2  H    1.107243   0.000000
     3  H    1.107243   1.808119   0.000000
     4  H    1.107243   1.808119   1.808119   0.000000
     5  H    1.107243   1.808119   1.808119   1.808119   0.000000
     6  C    3.305471   3.240850   2.650221   4.319686   3.524490
     7  H    2.265135   2.364676   1.547541   3.235096   2.640998
     8  H    3.550294   3.378990   3.185915   4.646867   3.487305
     9  H    3.874291   3.564338   3.248975   4.815071   4.301072
    10  H    3.982830   4.147603   3.146083   4.929359   4.117847
                    6          7          8          9         10
     6  C    0.000000
     7  H    1.107242   0.000000
     8  H    1.107242   1.808119   0.000000
     9  H    1.107243   1.808119   1.808119   0.000000
    10  H    1.107242   1.808119   1.808119   1.808119   0.000000
 Symmetry turned off by external request.
 This structure is nearly, but not quite of a higher symmetry.
 Consider Symm=Loose if the higher symmetry is desired.
 Framework group  C1[X(C2H8)]
 Deg. of freedom    24
 Rotational constants (GHZ):     76.6916056      5.3666751      5.3666751
   276 basis functions,   360 primitive gaussians,   310 cartesian basis functions
     5 alpha electrons        5 beta electrons
       nuclear repulsion energy        13.2261669666 Hartrees.
 IMHF & INEx in M05                  614413                  385587
 NAtoms=   10 NActive=   10 NUniq=   10 SFac= 1.00D+00 NAtFMM=   60 NAOKFM=F Big=F
 ExpMin= 2.53D-02 ExpMax= 8.24D+03 ExpMxC= 2.81D+02 IAcc=3 IRadAn=         5 AccDes= 0.00D+00
 Harris functional with IExCor= 1009 and IRadAn=       5 diagonalized for initial guess.
 HarFok:  IExCor= 1009 AccDes= 0.00D+00 IRadAn=         5 IDoV= 1 UseB2=F ITyADJ=14
 ICtDFT=  3500011 ScaDFX=  1.000000  1.000000  1.000000  1.000000
 FoFCou: FMM=F IPFlag=           0 FMFlag=      100000 FMFlg1=           0
         NFxFlg=           0 DoJE=T BraDBF=F KetDBF=T FulRan=T
         wScrn=  0.000000 ICntrl=     500 IOpCl=  0 I1Cent=   200000004 NGrid=           0
         NMat0=    1 NMatS0=      1 NMatT0=    0 NMatD0=    1 NMtDS0=    0 NMtDT0=    0
 Symmetry not used in FoFCou.
 SCF Done:  E(RM05) =  -40.9122777993     A.U. after    7 cycles
            NFock=  7  Conv=0.61D-08     -V/T= 2.0127

 **********************************************************************

            Population analysis using the SCF density.

 **********************************************************************

 Alpha  occ. eigenvalues --  -10.74531  -0.82769  -0.48754  -0.48752  -0.48752
 Alpha virt. eigenvalues --   -0.00127   0.02318   0.02759   0.02822   0.04661
 Alpha virt. eigenvalues --    0.05359   0.05605   0.06583   0.08439   0.08933
 Alpha virt. eigenvalues --    0.10045   0.10259   0.10762   0.10919   0.12681
 Alpha virt. eigenvalues --    0.13580   0.15311   0.16305   0.17618   0.19092
 Alpha virt. eigenvalues --    0.21121   0.21800   0.22121   0.26042   0.26117
 Alpha virt. eigenvalues --    0.26795   0.27299   0.28025   0.28363   0.28996
 Alpha virt. eigenvalues --    0.29217   0.29671   0.30146   0.31800   0.32246
 Alpha virt. eigenvalues --    0.32729   0.33844   0.35007   0.35800   0.36218
 Alpha virt. eigenvalues --    0.36902   0.37860   0.39613   0.40266   0.41698
 Alpha virt. eigenvalues --    0.42694   0.43754   0.44720   0.45342   0.45950
 Alpha virt. eigenvalues --    0.46752   0.49914   0.51810   0.53429   0.54685
 Alpha virt. eigenvalues --    0.56246   0.57294   0.58742   0.59843   0.60358
 Alpha virt. eigenvalues --    0.64055   0.64525   0.65820   0.67215   0.69871
 Alpha virt. eigenvalues --    0.71958   0.72776   0.74888   0.78240   0.78598
 Alpha virt. eigenvalues --    0.80041   0.81809   0.84055   0.84637   0.85743
 Alpha virt. eigenvalues --    0.86829   0.89552   0.91423   0.92922   0.94040
 Alpha virt. eigenvalues --    0.95208   0.96591   0.97162   0.97483   0.98469
 Alpha virt. eigenvalues --    0.99875   1.00290   1.01654   1.02686   1.03052
 Alpha virt. eigenvalues --    1.04634   1.05149   1.06049   1.06600   1.08242
 Alpha virt. eigenvalues --    1.10211   1.11191   1.11881   1.12618   1.12922
 Alpha virt. eigenvalues --    1.14408   1.15451   1.17036   1.18349   1.20454
 Alpha virt. eigenvalues --    1.22307   1.23038   1.24920   1.26312   1.29578
 Alpha virt. eigenvalues --    1.32482   1.33322   1.34377   1.35718   1.36046
 Alpha virt. eigenvalues --    1.41021   1.41993   1.42509   1.45063   1.45278
 Alpha virt. eigenvalues --    1.46419   1.47929   1.50352   1.51172   1.53427
 Alpha virt. eigenvalues --    1.54496   1.56737   1.60973   1.62105   1.63565
 Alpha virt. eigenvalues --    1.67925   1.68670   1.69952   1.73755   1.76935
 Alpha virt. eigenvalues --    1.78958   1.81127   1.83564   1.83935   1.87903
 Alpha virt. eigenvalues --    1.89532   1.93111   1.94688   1.96817   1.98807
 Alpha virt. eigenvalues --    2.01090   2.01584   2.01729   2.03925   2.05922
 Alpha virt. eigenvalues --    2.06524   2.11212   2.13834   2.16679   2.20187
 Alpha virt. eigenvalues --    2.26330   2.32740   2.34690   2.43978   2.46421
 Alpha virt. eigenvalues --    2.50166   2.53105   2.65172   2.66393   2.74332
 Alpha virt. eigenvalues --    2.79343   2.94012   2.97415   3.04538   3.13810
 Alpha virt. eigenvalues --    3.22941   3.26562   3.28024   3.30091   3.32955
 Alpha virt. eigenvalues --    3.37565   3.40163   3.46280   3.58012   3.60247
 Alpha virt. eigenvalues --    3.61811   3.72698   3.73327   3.74574   3.76283
 Alpha virt. eigenvalues --    3.78413   3.81823   3.83605   3.86047   3.89780
 Alpha virt. eigenvalues --    3.92382   3.97248   3.98744   3.99754   4.06640
 Alpha virt. eigenvalues --    4.15125   4.17323   4.18334   4.19622   4.20040
 Alpha virt. eigenvalues --    4.22796   4.30321   4.33259   4.33561   4.35914
 Alpha virt. eigenvalues --    4.36462   4.39810   4.40540   4.41876   4.45507
 Alpha virt. eigenvalues --    4.46362   4.48370   4.50174   4.53107   4.56184
 Alpha virt. eigenvalues --    4.58743   4.58911   4.60582   4.65968   4.73050
 Alpha virt. eigenvalues --    4.77791   4.80895   4.82765   4.84612   4.86655
 Alpha virt. eigenvalues --    4.88827   4.90559   4.99308   5.00905   5.12171
 Alpha virt. eigenvalues --    5.14235   5.15771   5.16937   5.18123   5.21781
 Alpha virt. eigenvalues --    5.26294   5.28128   5.28924   5.32003   5.35187
 Alpha virt. eigenvalues --    5.36973   5.41653   5.44448   5.48230   5.50482
 Alpha virt. eigenvalues --    5.51680   5.59362   5.63338   5.71152   5.81932
 Alpha virt. eigenvalues --    6.06641   6.09933   6.10449   6.11927   6.13143
 Alpha virt. eigenvalues --    6.18058   6.19953   6.25465   6.77887   6.78808
 Alpha virt. eigenvalues --    6.94973   6.99806   7.64426   7.65922   7.74348
 Alpha virt. eigenvalues --    7.99602   8.03132   8.16614  10.42818  17.05394
 Alpha virt. eigenvalues --   53.68837
          Condensed to atoms (all electrons):
 Mulliken charges:
               1
     1  C   -1.953620
     2  H    0.462158
     3  H    0.664567
     4  H    0.417052
     5  H    0.480133
     6  C   -0.031953
     7  H   -0.031483
     8  H   -0.007276
     9  H   -0.001609
    10  H    0.002030
 Sum of Mulliken charges =  -0.00000
 Mulliken charges with hydrogens summed into heavy atoms:
               1
     1  C    0.070291
     6  C   -0.070291
 Electronic spatial extent (au):  <R**2>=             36.5423
 Charge=             -0.0000 electrons
 Dipole moment (field-independent basis, Debye):
    X=             -0.0000    Y=             -0.0002    Z=             -0.0003  Tot=              0.0003

 Test job not archived.
 1\1\GINC-CHIMERA-NODE62\SP\RM05\Gen\C2H8\CONNORNM\08-Dec-2018\0\\#T M0
 5/Gen test Massage SCF=(tight,maxcyc=40)\\M05 opt\\0,1\C,0,0.,0.,0.\H,
 0,1.07878036,0.,0.24943716\H,0,-0.55818915,0.5591233,0.77575252\H,0,-0
 .15121272,0.48389091,-0.98436287\H,0,-0.36937849,-1.04301422,-0.040826
 81\C,0,0.,0.,3.30547086\H,0,-0.16409473,0.26657967,2.24340017\H,0,0.33
 827113,-1.05208094,3.37391271\H,0,0.77259918,0.66496635,3.73778581\H,0
 ,-0.94677558,0.12053493,3.86678475\\Version=AS64L-G09RevD.01\HF=-40.91
 22778\RMSD=6.139e-09\Dipole=-0.0000161,-0.0000869,-0.0001034\Quadrupol
 e=-0.0000352,0.0001527,-0.0001175,-0.0007321,0.0001701,-0.000184\PG=C0
 1 [X(C2H8)]\\@


 YE HAVE SOWN MUCH, AND BRING IN LITTLE.
 YE EAT, BUT YE HAVE NOT ENOUGH.
 YE DRINK, BUT YE ARE NOT FILLED WITH DRINK.
 YE CLOTHE YOU, BUT THERE IS NONE WARM.
 AND HE THAT EARNETH WAGES EARNETH WAGES TO PUT
 IT INTO A BAG WITH HOLES.
                                     HAGGAI I,6
 Job cpu time:       0 days  0 hours 12 minutes 39.4 seconds.
 File lengths (MBytes):  RWF=     41 Int=      0 D2E=      0 Chk=      4 Scr=      1
 Normal termination of Gaussian 09 at Sat Dec  8 11:21:19 2018.
