 Entering Gaussian System, Link 0=/data/szalewicgrp/connornm/opt/Gaussian/g09-M05-par/g09/g09
 AtFile(1): aug-cc-pVTZ.gbs
 Initial command:
 /data/szalewicgrp/connornm/opt/Gaussian/g09-M05-par/g09/l1.exe "/scratch/local/Gau-21618.inp" -scrdir="/scratch/local/"
 Entering Link 1 = /data/szalewicgrp/connornm/opt/Gaussian/g09-M05-par/g09/l1.exe PID=     21619.
  
 Copyright (c) 1988,1990,1992,1993,1995,1998,2003,2009,2013,
            Gaussian, Inc.  All Rights Reserved.
  
 This is part of the Gaussian(R) 09 program.  It is based on
 the Gaussian(R) 03 system (copyright 2003, Gaussian, Inc.),
 the Gaussian(R) 98 system (copyright 1998, Gaussian, Inc.),
 the Gaussian(R) 94 system (copyright 1995, Gaussian, Inc.),
 the Gaussian 92(TM) system (copyright 1992, Gaussian, Inc.),
 the Gaussian 90(TM) system (copyright 1990, Gaussian, Inc.),
 the Gaussian 88(TM) system (copyright 1988, Gaussian, Inc.),
 the Gaussian 86(TM) system (copyright 1986, Carnegie Mellon
 University), and the Gaussian 82(TM) system (copyright 1983,
 Carnegie Mellon University). Gaussian is a federally registered
 trademark of Gaussian, Inc.
  
 This software contains proprietary and confidential information,
 including trade secrets, belonging to Gaussian, Inc.
  
 This software is provided under written license and may be
 used, copied, transmitted, or stored only in accord with that
 written license.
  
 The following legend is applicable only to US Government
 contracts under FAR:
  
                    RESTRICTED RIGHTS LEGEND
  
 Use, reproduction and disclosure by the US Government is
 subject to restrictions as set forth in subparagraphs (a)
 and (c) of the Commercial Computer Software - Restricted
 Rights clause in FAR 52.227-19.
  
 Gaussian, Inc.
 340 Quinnipiac St., Bldg. 40, Wallingford CT 06492
  
  
 ---------------------------------------------------------------
 Warning -- This program may not be used in any manner that
 competes with the business of Gaussian, Inc. or will provide
 assistance to any competitor of Gaussian, Inc.  The licensee
 of this program is prohibited from giving any competitor of
 Gaussian, Inc. access to this program.  By using this program,
 the user acknowledges that Gaussian, Inc. is engaged in the
 business of creating and licensing software in the field of
 computational chemistry and represents and warrants to the
 licensee that it is not a competitor of Gaussian, Inc. and that
 it will not use this program in any manner prohibited above.
 ---------------------------------------------------------------
  

 Cite this work as:
 Gaussian 09, Revision D.01,
 M. J. Frisch, G. W. Trucks, H. B. Schlegel, G. E. Scuseria, 
 M. A. Robb, J. R. Cheeseman, G. Scalmani, V. Barone, B. Mennucci, 
 G. A. Petersson, H. Nakatsuji, M. Caricato, X. Li, H. P. Hratchian, 
 A. F. Izmaylov, J. Bloino, G. Zheng, J. L. Sonnenberg, M. Hada, 
 M. Ehara, K. Toyota, R. Fukuda, J. Hasegawa, M. Ishida, T. Nakajima, 
 Y. Honda, O. Kitao, H. Nakai, T. Vreven, J. A. Montgomery, Jr., 
 J. E. Peralta, F. Ogliaro, M. Bearpark, J. J. Heyd, E. Brothers, 
 K. N. Kudin, V. N. Staroverov, T. Keith, R. Kobayashi, J. Normand, 
 K. Raghavachari, A. Rendell, J. C. Burant, S. S. Iyengar, J. Tomasi, 
 M. Cossi, N. Rega, J. M. Millam, M. Klene, J. E. Knox, J. B. Cross, 
 V. Bakken, C. Adamo, J. Jaramillo, R. Gomperts, R. E. Stratmann, 
 O. Yazyev, A. J. Austin, R. Cammi, C. Pomelli, J. W. Ochterski, 
 R. L. Martin, K. Morokuma, V. G. Zakrzewski, G. A. Voth, 
 P. Salvador, J. J. Dannenberg, S. Dapprich, A. D. Daniels, 
 O. Farkas, J. B. Foresman, J. V. Ortiz, J. Cioslowski, 
 and D. J. Fox, Gaussian, Inc., Wallingford CT, 2013.
 
 ******************************************
 Gaussian 09:  AS64L-G09RevD.01 24-Apr-2013
                 7-Dec-2018 
 ******************************************
 %Chk=CH400291
 %Mem=2GB
 %NProcShared=16
 Will use up to   16 processors via shared memory.
 ---------------------------------------------
 #T M05/Gen test Massage SCF=(tight,maxcyc=40)
 ---------------------------------------------
 -------
 M05 opt
 -------
 Symbolic Z-matrix:
 Charge =  0 Multiplicity = 1
 6                     0.        0.        0. 
 1                     0.85257   0.        0.70648 
 1                     0.16382  -0.7725   -0.77614 
 1                    -0.93505  -0.22183   0.54996 
 1                    -0.08133   0.99433  -0.4803 
 6-Bq                  0.        0.        3.11333 
 1-Bq                  0.9384   -0.29153   3.62362 
 1-Bq                  0.18838   0.88068   2.4692 
 1-Bq                 -0.35876  -0.84253   2.4909 
 1-Bq                 -0.76802   0.25338   3.86959 
 
                    Distance matrix (angstroms):
                    1          2          3          4          5
     1  C    0.000000
     2  H    1.107243   0.000000
     3  H    1.107242   1.808119   0.000000
     4  H    1.107243   1.808119   1.808119   0.000000
     5  H    1.107242   1.808119   1.808119   1.808119   0.000000
     6  C    3.113331   2.553392   3.968827   2.737590   3.729538
     7  H    3.754495   2.932932   4.493244   3.600291   4.419891
     8  H    2.628316   2.079409   3.642233   2.482160   2.963984
     9  H    2.653898   2.315462   3.309318   2.117697   3.504147
    10  H    3.953202   3.563117   4.848052   3.357632   4.465655
                    6          7          8          9         10
     6  C    0.000000
     7  H    1.107243   0.000000
     8  H    1.107243   1.808119   0.000000
     9  H    1.107242   1.808119   1.808119   0.000000
    10  H    1.107243   1.808119   1.808119   1.808119   0.000000
 Symmetry turned off by external request.
 This structure is nearly, but not quite of a higher symmetry.
 Consider Symm=Loose if the higher symmetry is desired.
 Framework group  C1[X(C2H8)]
 Deg. of freedom    24
 Rotational constants (GHZ):     76.6916055      5.9961389      5.9961389
   276 basis functions,   360 primitive gaussians,   310 cartesian basis functions
     5 alpha electrons        5 beta electrons
       nuclear repulsion energy        13.2261670143 Hartrees.
 IMHF & INEx in M05                  614413                  385587
 NAtoms=   10 NActive=   10 NUniq=   10 SFac= 1.00D+00 NAtFMM=   60 NAOKFM=F Big=F
 ExpMin= 2.53D-02 ExpMax= 8.24D+03 ExpMxC= 2.81D+02 IAcc=3 IRadAn=         5 AccDes= 0.00D+00
 Harris functional with IExCor= 1009 and IRadAn=       5 diagonalized for initial guess.
 HarFok:  IExCor= 1009 AccDes= 0.00D+00 IRadAn=         5 IDoV= 1 UseB2=F ITyADJ=14
 ICtDFT=  3500011 ScaDFX=  1.000000  1.000000  1.000000  1.000000
 FoFCou: FMM=F IPFlag=           0 FMFlag=      100000 FMFlg1=           0
         NFxFlg=           0 DoJE=T BraDBF=F KetDBF=T FulRan=T
         wScrn=  0.000000 ICntrl=     500 IOpCl=  0 I1Cent=   200000004 NGrid=           0
         NMat0=    1 NMatS0=      1 NMatT0=    0 NMatD0=    1 NMtDS0=    0 NMtDT0=    0
 Symmetry not used in FoFCou.
 SCF Done:  E(RM05) =  -45.8802096122     A.U. after   10 cycles
            NFock= 10  Conv=0.65D-08     -V/T= 2.0334

 **********************************************************************

            Population analysis using the SCF density.

 **********************************************************************

 Alpha  occ. eigenvalues --  -12.05212  -0.99439  -0.71154  -0.71151  -0.71144
 Alpha virt. eigenvalues --   -0.08955  -0.01742  -0.01736  -0.01726  -0.00541
 Alpha virt. eigenvalues --   -0.00434  -0.00331   0.03076   0.04119   0.05005
 Alpha virt. eigenvalues --    0.05132   0.05946   0.06314   0.07226   0.07975
 Alpha virt. eigenvalues --    0.08325   0.08862   0.11192   0.12111   0.13200
 Alpha virt. eigenvalues --    0.15636   0.16527   0.18830   0.19532   0.20638
 Alpha virt. eigenvalues --    0.21103   0.21675   0.22152   0.22873   0.23693
 Alpha virt. eigenvalues --    0.24206   0.24623   0.25346   0.25612   0.26719
 Alpha virt. eigenvalues --    0.28143   0.28236   0.29335   0.29803   0.31375
 Alpha virt. eigenvalues --    0.33446   0.34493   0.35912   0.36900   0.38011
 Alpha virt. eigenvalues --    0.38522   0.39852   0.40204   0.40568   0.41762
 Alpha virt. eigenvalues --    0.42944   0.43659   0.45355   0.45691   0.49545
 Alpha virt. eigenvalues --    0.50599   0.51201   0.52425   0.53768   0.55173
 Alpha virt. eigenvalues --    0.55501   0.56134   0.57909   0.58059   0.60232
 Alpha virt. eigenvalues --    0.62235   0.62416   0.64343   0.64896   0.66228
 Alpha virt. eigenvalues --    0.67154   0.67420   0.71141   0.71821   0.73377
 Alpha virt. eigenvalues --    0.74583   0.76486   0.77987   0.80021   0.80614
 Alpha virt. eigenvalues --    0.82057   0.83680   0.85136   0.86090   0.88246
 Alpha virt. eigenvalues --    0.88650   0.90662   0.92463   0.93719   0.94953
 Alpha virt. eigenvalues --    0.96165   0.96384   0.98769   1.00118   1.00904
 Alpha virt. eigenvalues --    1.02229   1.02593   1.04827   1.05676   1.06900
 Alpha virt. eigenvalues --    1.07733   1.10371   1.12367   1.13754   1.14295
 Alpha virt. eigenvalues --    1.16533   1.17944   1.18424   1.21171   1.22409
 Alpha virt. eigenvalues --    1.23969   1.24419   1.26153   1.27402   1.28514
 Alpha virt. eigenvalues --    1.29103   1.30371   1.32761   1.33588   1.35130
 Alpha virt. eigenvalues --    1.35900   1.36137   1.37497   1.40585   1.41359
 Alpha virt. eigenvalues --    1.43404   1.45072   1.48136   1.49889   1.50969
 Alpha virt. eigenvalues --    1.54692   1.55648   1.57421   1.59819   1.60932
 Alpha virt. eigenvalues --    1.66938   1.68814   1.71038   1.72257   1.74771
 Alpha virt. eigenvalues --    1.76677   1.79185   1.79328   1.81556   1.85614
 Alpha virt. eigenvalues --    1.88532   1.89766   1.92663   1.93349   1.94436
 Alpha virt. eigenvalues --    1.98693   2.00417   2.03171   2.07894   2.08574
 Alpha virt. eigenvalues --    2.13113   2.18307   2.26952   2.29685   2.32507
 Alpha virt. eigenvalues --    2.40374   2.43667   2.45330   2.54609   2.55258
 Alpha virt. eigenvalues --    2.63371   2.65381   2.66252   2.68034   2.80822
 Alpha virt. eigenvalues --    3.00868   3.02369   3.05693   3.07267   3.10024
 Alpha virt. eigenvalues --    3.12307   3.14288   3.19571   3.24294   3.25093
 Alpha virt. eigenvalues --    3.27121   3.44924   3.47413   3.48575   3.49262
 Alpha virt. eigenvalues --    3.53854   3.55682   3.57229   3.58484   3.64645
 Alpha virt. eigenvalues --    3.74198   3.90941   3.91395   3.92206   3.95320
 Alpha virt. eigenvalues --    3.96320   3.99939   4.01683   4.04216   4.05009
 Alpha virt. eigenvalues --    4.05906   4.07153   4.11063   4.15387   4.18211
 Alpha virt. eigenvalues --    4.18584   4.22513   4.24235   4.26228   4.30194
 Alpha virt. eigenvalues --    4.31422   4.33156   4.35753   4.37052   4.43118
 Alpha virt. eigenvalues --    4.46178   4.48088   4.48955   4.50951   4.53187
 Alpha virt. eigenvalues --    4.54946   4.58712   4.60031   4.65967   4.73941
 Alpha virt. eigenvalues --    4.80529   4.84949   4.87848   4.89167   4.90335
 Alpha virt. eigenvalues --    4.91702   4.92870   4.97386   5.03967   5.05643
 Alpha virt. eigenvalues --    5.12724   5.16093   5.17421   5.19571   5.21750
 Alpha virt. eigenvalues --    5.24732   5.25585   5.28424   5.30525   5.36610
 Alpha virt. eigenvalues --    5.42998   5.44720   5.46682   5.50799   5.52448
 Alpha virt. eigenvalues --    5.65074   5.65757   5.73087   6.09298   6.12253
 Alpha virt. eigenvalues --    6.15927   6.19135   6.19460   6.78822   6.79640
 Alpha virt. eigenvalues --    6.82805   6.95972   7.58803   7.64736   7.66357
 Alpha virt. eigenvalues --    8.04291   8.05943   8.13177  10.30239  15.14629
 Alpha virt. eigenvalues --   52.56534
          Condensed to atoms (all electrons):
 Mulliken charges:
               1
     1  C    0.294070
     2  H    0.102718
     3  H   -0.383404
     4  H    0.049390
     5  H   -0.242972
     6  C    0.068054
     7  H    0.009365
     8  H    0.029974
     9  H    0.070762
    10  H    0.002043
 Sum of Mulliken charges =  -0.00000
 Mulliken charges with hydrogens summed into heavy atoms:
               1
     1  C   -0.180199
     6  C    0.180199
 Electronic spatial extent (au):  <R**2>=             35.5912
 Charge=             -0.0000 electrons
 Dipole moment (field-independent basis, Debye):
    X=             -0.0003    Y=             -0.0001    Z=              0.0006  Tot=              0.0006

 Test job not archived.
 1\1\GINC-CHIMERA-NODE43\SP\RM05\Gen\C2H8\CONNORNM\07-Dec-2018\0\\#T M0
 5/Gen test Massage SCF=(tight,maxcyc=40)\\M05 opt\\0,1\C,0,0.,0.,0.\H,
 0,0.85256929,0.,0.70647828\H,0,0.16381725,-0.77249809,-0.7761421\H,0,-
 0.93505195,-0.22182907,0.5499597\H,0,-0.08133459,0.99432716,-0.4802958
 8\C,0,0.,0.,3.11333067\H,0,0.93840189,-0.29153012,3.62362278\H,0,0.188
 38026,0.88068018,2.46920238\H,0,-0.35876496,-0.84253108,2.49090394\H,0
 ,-0.76801719,0.25338101,3.8695936\\Version=AS64L-G09RevD.01\HF=-45.880
 2096\RMSD=6.455e-09\Dipole=-0.0001048,-0.0000526,0.0002221\Quadrupole=
 -0.0024296,-0.0000794,0.0025089,-0.0002968,-0.0004847,-0.000202\PG=C01
  [X(C2H8)]\\@


 WHEN YOU'VE SEEN ONE NUCLEAR WAR YOU'VE SEEN THEM ALL.
 Job cpu time:       0 days  0 hours 17 minutes 54.2 seconds.
 File lengths (MBytes):  RWF=     41 Int=      0 D2E=      0 Chk=      4 Scr=      1
 Normal termination of Gaussian 09 at Fri Dec  7 11:58:53 2018.
