 Entering Gaussian System, Link 0=/data/szalewicgrp/connornm/opt/Gaussian/g09-M05-par/g09/g09
 AtFile(1): aug-cc-pVTZ.gbs
 Initial command:
 /data/szalewicgrp/connornm/opt/Gaussian/g09-M05-par/g09/l1.exe "/scratch/local/Gau-26126.inp" -scrdir="/scratch/local/"
 Entering Link 1 = /data/szalewicgrp/connornm/opt/Gaussian/g09-M05-par/g09/l1.exe PID=     26127.
  
 Copyright (c) 1988,1990,1992,1993,1995,1998,2003,2009,2013,
            Gaussian, Inc.  All Rights Reserved.
  
 This is part of the Gaussian(R) 09 program.  It is based on
 the Gaussian(R) 03 system (copyright 2003, Gaussian, Inc.),
 the Gaussian(R) 98 system (copyright 1998, Gaussian, Inc.),
 the Gaussian(R) 94 system (copyright 1995, Gaussian, Inc.),
 the Gaussian 92(TM) system (copyright 1992, Gaussian, Inc.),
 the Gaussian 90(TM) system (copyright 1990, Gaussian, Inc.),
 the Gaussian 88(TM) system (copyright 1988, Gaussian, Inc.),
 the Gaussian 86(TM) system (copyright 1986, Carnegie Mellon
 University), and the Gaussian 82(TM) system (copyright 1983,
 Carnegie Mellon University). Gaussian is a federally registered
 trademark of Gaussian, Inc.
  
 This software contains proprietary and confidential information,
 including trade secrets, belonging to Gaussian, Inc.
  
 This software is provided under written license and may be
 used, copied, transmitted, or stored only in accord with that
 written license.
  
 The following legend is applicable only to US Government
 contracts under FAR:
  
                    RESTRICTED RIGHTS LEGEND
  
 Use, reproduction and disclosure by the US Government is
 subject to restrictions as set forth in subparagraphs (a)
 and (c) of the Commercial Computer Software - Restricted
 Rights clause in FAR 52.227-19.
  
 Gaussian, Inc.
 340 Quinnipiac St., Bldg. 40, Wallingford CT 06492
  
  
 ---------------------------------------------------------------
 Warning -- This program may not be used in any manner that
 competes with the business of Gaussian, Inc. or will provide
 assistance to any competitor of Gaussian, Inc.  The licensee
 of this program is prohibited from giving any competitor of
 Gaussian, Inc. access to this program.  By using this program,
 the user acknowledges that Gaussian, Inc. is engaged in the
 business of creating and licensing software in the field of
 computational chemistry and represents and warrants to the
 licensee that it is not a competitor of Gaussian, Inc. and that
 it will not use this program in any manner prohibited above.
 ---------------------------------------------------------------
  

 Cite this work as:
 Gaussian 09, Revision D.01,
 M. J. Frisch, G. W. Trucks, H. B. Schlegel, G. E. Scuseria, 
 M. A. Robb, J. R. Cheeseman, G. Scalmani, V. Barone, B. Mennucci, 
 G. A. Petersson, H. Nakatsuji, M. Caricato, X. Li, H. P. Hratchian, 
 A. F. Izmaylov, J. Bloino, G. Zheng, J. L. Sonnenberg, M. Hada, 
 M. Ehara, K. Toyota, R. Fukuda, J. Hasegawa, M. Ishida, T. Nakajima, 
 Y. Honda, O. Kitao, H. Nakai, T. Vreven, J. A. Montgomery, Jr., 
 J. E. Peralta, F. Ogliaro, M. Bearpark, J. J. Heyd, E. Brothers, 
 K. N. Kudin, V. N. Staroverov, T. Keith, R. Kobayashi, J. Normand, 
 K. Raghavachari, A. Rendell, J. C. Burant, S. S. Iyengar, J. Tomasi, 
 M. Cossi, N. Rega, J. M. Millam, M. Klene, J. E. Knox, J. B. Cross, 
 V. Bakken, C. Adamo, J. Jaramillo, R. Gomperts, R. E. Stratmann, 
 O. Yazyev, A. J. Austin, R. Cammi, C. Pomelli, J. W. Ochterski, 
 R. L. Martin, K. Morokuma, V. G. Zakrzewski, G. A. Voth, 
 P. Salvador, J. J. Dannenberg, S. Dapprich, A. D. Daniels, 
 O. Farkas, J. B. Foresman, J. V. Ortiz, J. Cioslowski, 
 and D. J. Fox, Gaussian, Inc., Wallingford CT, 2013.
 
 ******************************************
 Gaussian 09:  AS64L-G09RevD.01 24-Apr-2013
                 7-Dec-2018 
 ******************************************
 %Chk=CH400194
 %Mem=2GB
 %NProcShared=16
 Will use up to   16 processors via shared memory.
 ---------------------------------------------
 #T M05/Gen test Massage SCF=(tight,maxcyc=40)
 ---------------------------------------------
 -------
 M05 opt
 -------
 Symbolic Z-matrix:
 Charge =  0 Multiplicity = 1
 6                     0.        0.        0. 
 1                     0.82994   0.       -0.73293 
 1                    -0.08849  -1.00448   0.45737 
 1                     0.2051    0.7484    0.78982 
 1                    -0.94655   0.25608  -0.51425 
 6-Bq                  0.        0.        3.16148 
 1-Bq                  0.09208  -1.02137   2.74397 
 1-Bq                 -1.01463   0.1362    3.58333 
 1-Bq                  0.75379   0.14163   3.96006 
 1-Bq                  0.16876   0.74354   2.35858 
 
                    Distance matrix (angstroms):
                    1          2          3          4          5
     1  C    0.000000
     2  H    1.107243   0.000000
     3  H    1.107243   1.808119   0.000000
     4  H    1.107243   1.808119   1.808119   0.000000
     5  H    1.107243   1.808119   1.808119   1.808119   0.000000
     6  C    3.161481   3.981866   2.886008   2.495384   3.804282
     7  H    2.929340   3.698171   2.293784   2.638852   3.650565
     8  H    3.726695   4.695858   3.454057   3.109054   4.099899
     9  H    4.033647   4.695742   3.780455   3.274083   4.787871
    10  H    2.478751   3.247679   2.595444   1.569183   3.120046
                    6          7          8          9         10
     6  C    0.000000
     7  H    1.107243   0.000000
     8  H    1.107242   1.808119   0.000000
     9  H    1.107243   1.808119   1.808119   0.000000
    10  H    1.107243   1.808119   1.808119   1.808119   0.000000
 Symmetry turned off by external request.
 This structure is nearly, but not quite of a higher symmetry.
 Consider Symm=Loose if the higher symmetry is desired.
 Framework group  C1[X(C2H8)]
 Deg. of freedom    24
 Rotational constants (GHZ):     76.6916053      5.8286580      5.8286580
   276 basis functions,   360 primitive gaussians,   310 cartesian basis functions
     5 alpha electrons        5 beta electrons
       nuclear repulsion energy        13.2261669827 Hartrees.
 IMHF & INEx in M05                  614413                  385587
 NAtoms=   10 NActive=   10 NUniq=   10 SFac= 1.00D+00 NAtFMM=   60 NAOKFM=F Big=F
 ExpMin= 2.53D-02 ExpMax= 8.24D+03 ExpMxC= 2.81D+02 IAcc=3 IRadAn=         5 AccDes= 0.00D+00
 Harris functional with IExCor= 1009 and IRadAn=       5 diagonalized for initial guess.
 HarFok:  IExCor= 1009 AccDes= 0.00D+00 IRadAn=         5 IDoV= 1 UseB2=F ITyADJ=14
 ICtDFT=  3500011 ScaDFX=  1.000000  1.000000  1.000000  1.000000
 FoFCou: FMM=F IPFlag=           0 FMFlag=      100000 FMFlg1=           0
         NFxFlg=           0 DoJE=T BraDBF=F KetDBF=T FulRan=T
         wScrn=  0.000000 ICntrl=     500 IOpCl=  0 I1Cent=   200000004 NGrid=           0
         NMat0=    1 NMatS0=      1 NMatT0=    0 NMatD0=    1 NMtDS0=    0 NMtDT0=    0
 Symmetry not used in FoFCou.
 SCF Done:  E(RM05) =  -40.9122747940     A.U. after    7 cycles
            NFock=  7  Conv=0.48D-08     -V/T= 2.0127

 **********************************************************************

            Population analysis using the SCF density.

 **********************************************************************

 Alpha  occ. eigenvalues --  -10.74528  -0.82769  -0.48754  -0.48752  -0.48752
 Alpha virt. eigenvalues --   -0.00110   0.02409   0.02798   0.02949   0.04875
 Alpha virt. eigenvalues --    0.04977   0.05247   0.07496   0.08468   0.08933
 Alpha virt. eigenvalues --    0.09542   0.10933   0.11223   0.12152   0.12496
 Alpha virt. eigenvalues --    0.13507   0.15320   0.16339   0.17227   0.17468
 Alpha virt. eigenvalues --    0.20590   0.22136   0.24590   0.26133   0.26635
 Alpha virt. eigenvalues --    0.26720   0.27415   0.27788   0.28786   0.29371
 Alpha virt. eigenvalues --    0.29935   0.30795   0.31456   0.31845   0.32371
 Alpha virt. eigenvalues --    0.33095   0.34121   0.35404   0.36140   0.36429
 Alpha virt. eigenvalues --    0.38156   0.38248   0.39803   0.41810   0.42405
 Alpha virt. eigenvalues --    0.43759   0.44390   0.44499   0.47556   0.48210
 Alpha virt. eigenvalues --    0.50696   0.50929   0.52002   0.52856   0.54194
 Alpha virt. eigenvalues --    0.55751   0.56849   0.57720   0.62231   0.63211
 Alpha virt. eigenvalues --    0.65055   0.65683   0.67590   0.68827   0.70779
 Alpha virt. eigenvalues --    0.71930   0.72926   0.74079   0.76034   0.77806
 Alpha virt. eigenvalues --    0.78687   0.79486   0.83754   0.85249   0.85509
 Alpha virt. eigenvalues --    0.89525   0.90779   0.91798   0.92168   0.92792
 Alpha virt. eigenvalues --    0.93370   0.95063   0.96752   0.97403   0.98549
 Alpha virt. eigenvalues --    0.99871   0.99944   1.01781   1.03299   1.03860
 Alpha virt. eigenvalues --    1.05195   1.06070   1.06710   1.08511   1.08746
 Alpha virt. eigenvalues --    1.10180   1.10511   1.11460   1.12587   1.14033
 Alpha virt. eigenvalues --    1.16333   1.17357   1.18775   1.20622   1.21583
 Alpha virt. eigenvalues --    1.22580   1.25397   1.27044   1.29151   1.30945
 Alpha virt. eigenvalues --    1.33332   1.35163   1.35704   1.37829   1.39329
 Alpha virt. eigenvalues --    1.40273   1.42190   1.43249   1.46108   1.46577
 Alpha virt. eigenvalues --    1.47898   1.48706   1.51428   1.52971   1.54484
 Alpha virt. eigenvalues --    1.58818   1.60253   1.61876   1.63250   1.68273
 Alpha virt. eigenvalues --    1.68752   1.71131   1.71891   1.73611   1.76748
 Alpha virt. eigenvalues --    1.79860   1.80867   1.85227   1.85834   1.88953
 Alpha virt. eigenvalues --    1.92418   1.92681   1.95787   1.96147   1.97704
 Alpha virt. eigenvalues --    2.00028   2.00890   2.02703   2.04637   2.05874
 Alpha virt. eigenvalues --    2.06329   2.08412   2.10731   2.14779   2.18139
 Alpha virt. eigenvalues --    2.20896   2.31903   2.35844   2.40300   2.46883
 Alpha virt. eigenvalues --    2.48213   2.52966   2.65534   2.66788   2.70212
 Alpha virt. eigenvalues --    2.76603   2.91849   2.95101   2.97696   3.07639
 Alpha virt. eigenvalues --    3.22934   3.26681   3.28468   3.30149   3.30412
 Alpha virt. eigenvalues --    3.34748   3.36463   3.45736   3.59538   3.60286
 Alpha virt. eigenvalues --    3.65995   3.71212   3.71410   3.73190   3.75733
 Alpha virt. eigenvalues --    3.79063   3.80665   3.81778   3.83268   3.85489
 Alpha virt. eigenvalues --    3.89143   3.97520   3.99203   4.02553   4.06264
 Alpha virt. eigenvalues --    4.09619   4.17055   4.18465   4.21242   4.21694
 Alpha virt. eigenvalues --    4.24938   4.29907   4.31695   4.32734   4.34557
 Alpha virt. eigenvalues --    4.35916   4.39311   4.42828   4.43315   4.45076
 Alpha virt. eigenvalues --    4.46414   4.47693   4.51152   4.53183   4.53662
 Alpha virt. eigenvalues --    4.57898   4.58954   4.59859   4.64135   4.68753
 Alpha virt. eigenvalues --    4.75803   4.78407   4.80425   4.82831   4.84450
 Alpha virt. eigenvalues --    4.87920   4.89356   4.93361   4.98699   5.11001
 Alpha virt. eigenvalues --    5.13846   5.15314   5.16500   5.21174   5.22660
 Alpha virt. eigenvalues --    5.25800   5.27005   5.28599   5.32949   5.35639
 Alpha virt. eigenvalues --    5.39691   5.41742   5.45603   5.47633   5.49208
 Alpha virt. eigenvalues --    5.52492   5.60554   5.62984   5.74908   5.82897
 Alpha virt. eigenvalues --    6.06827   6.07929   6.09310   6.10317   6.13012
 Alpha virt. eigenvalues --    6.17499   6.20047   6.37590   6.78353   6.80143
 Alpha virt. eigenvalues --    6.88151   6.95853   7.58943   7.62851   7.65748
 Alpha virt. eigenvalues --    8.01105   8.04732   8.12522  10.30425  17.06816
 Alpha virt. eigenvalues --   53.04414
          Condensed to atoms (all electrons):
 Mulliken charges:
               1
     1  C   -1.977996
     2  H    0.373274
     3  H    0.488450
     4  H    0.697502
     5  H    0.416448
     6  C    0.026722
     7  H    0.012336
     8  H    0.003058
     9  H    0.004603
    10  H   -0.044397
 Sum of Mulliken charges =   0.00000
 Mulliken charges with hydrogens summed into heavy atoms:
               1
     1  C   -0.002322
     6  C    0.002322
 Electronic spatial extent (au):  <R**2>=             36.5422
 Charge=              0.0000 electrons
 Dipole moment (field-independent basis, Debye):
    X=             -0.0001    Y=              0.0001    Z=             -0.0000  Tot=              0.0002

 Test job not archived.
 1\1\GINC-CHIMERA-NODE14\SP\RM05\Gen\C2H8\CONNORNM\07-Dec-2018\0\\#T M0
 5/Gen test Massage SCF=(tight,maxcyc=40)\\M05 opt\\0,1\C,0,0.,0.,0.\H,
 0,0.8299374,0.,-0.73293238\H,0,-0.08849312,-1.00447569,0.45736584\H,0,
 0.2051038,0.7483992,0.78982088\H,0,-0.94654808,0.25607649,-0.51425434\
 C,0,0.,0.,3.16148139\H,0,0.09207683,-1.0213672,2.74396869\H,0,-1.01463
 404,0.13620203,3.58332582\H,0,0.75379498,0.14162802,3.96005549\H,0,0.1
 6876223,0.74353715,2.35857556\\Version=AS64L-G09RevD.01\HF=-40.9122748
 \RMSD=4.843e-09\Dipole=-0.0000588,0.000038,-0.0000106\Quadrupole=-0.00
 0362,0.0002777,0.0000843,0.0003826,-0.0001971,-0.000198\PG=C01 [X(C2H8
 )]\\@


 SCIENCE IS LONG AND LIFE IS SHORT.

                     DON MOSER IN THE FEBRUARY 1979 SMITHSONIAN
 Job cpu time:       0 days  0 hours 12 minutes 45.6 seconds.
 File lengths (MBytes):  RWF=     41 Int=      0 D2E=      0 Chk=      4 Scr=      1
 Normal termination of Gaussian 09 at Fri Dec  7 14:01:36 2018.
