 Entering Gaussian System, Link 0=/data/szalewicgrp/connornm/opt/Gaussian/g09-M05-par/g09/g09
 AtFile(1): aug-cc-pVTZ.gbs
 Initial command:
 /data/szalewicgrp/connornm/opt/Gaussian/g09-M05-par/g09/l1.exe "/scratch/local/Gau-20046.inp" -scrdir="/scratch/local/"
 Entering Link 1 = /data/szalewicgrp/connornm/opt/Gaussian/g09-M05-par/g09/l1.exe PID=     20047.
  
 Copyright (c) 1988,1990,1992,1993,1995,1998,2003,2009,2013,
            Gaussian, Inc.  All Rights Reserved.
  
 This is part of the Gaussian(R) 09 program.  It is based on
 the Gaussian(R) 03 system (copyright 2003, Gaussian, Inc.),
 the Gaussian(R) 98 system (copyright 1998, Gaussian, Inc.),
 the Gaussian(R) 94 system (copyright 1995, Gaussian, Inc.),
 the Gaussian 92(TM) system (copyright 1992, Gaussian, Inc.),
 the Gaussian 90(TM) system (copyright 1990, Gaussian, Inc.),
 the Gaussian 88(TM) system (copyright 1988, Gaussian, Inc.),
 the Gaussian 86(TM) system (copyright 1986, Carnegie Mellon
 University), and the Gaussian 82(TM) system (copyright 1983,
 Carnegie Mellon University). Gaussian is a federally registered
 trademark of Gaussian, Inc.
  
 This software contains proprietary and confidential information,
 including trade secrets, belonging to Gaussian, Inc.
  
 This software is provided under written license and may be
 used, copied, transmitted, or stored only in accord with that
 written license.
  
 The following legend is applicable only to US Government
 contracts under FAR:
  
                    RESTRICTED RIGHTS LEGEND
  
 Use, reproduction and disclosure by the US Government is
 subject to restrictions as set forth in subparagraphs (a)
 and (c) of the Commercial Computer Software - Restricted
 Rights clause in FAR 52.227-19.
  
 Gaussian, Inc.
 340 Quinnipiac St., Bldg. 40, Wallingford CT 06492
  
  
 ---------------------------------------------------------------
 Warning -- This program may not be used in any manner that
 competes with the business of Gaussian, Inc. or will provide
 assistance to any competitor of Gaussian, Inc.  The licensee
 of this program is prohibited from giving any competitor of
 Gaussian, Inc. access to this program.  By using this program,
 the user acknowledges that Gaussian, Inc. is engaged in the
 business of creating and licensing software in the field of
 computational chemistry and represents and warrants to the
 licensee that it is not a competitor of Gaussian, Inc. and that
 it will not use this program in any manner prohibited above.
 ---------------------------------------------------------------
  

 Cite this work as:
 Gaussian 09, Revision D.01,
 M. J. Frisch, G. W. Trucks, H. B. Schlegel, G. E. Scuseria, 
 M. A. Robb, J. R. Cheeseman, G. Scalmani, V. Barone, B. Mennucci, 
 G. A. Petersson, H. Nakatsuji, M. Caricato, X. Li, H. P. Hratchian, 
 A. F. Izmaylov, J. Bloino, G. Zheng, J. L. Sonnenberg, M. Hada, 
 M. Ehara, K. Toyota, R. Fukuda, J. Hasegawa, M. Ishida, T. Nakajima, 
 Y. Honda, O. Kitao, H. Nakai, T. Vreven, J. A. Montgomery, Jr., 
 J. E. Peralta, F. Ogliaro, M. Bearpark, J. J. Heyd, E. Brothers, 
 K. N. Kudin, V. N. Staroverov, T. Keith, R. Kobayashi, J. Normand, 
 K. Raghavachari, A. Rendell, J. C. Burant, S. S. Iyengar, J. Tomasi, 
 M. Cossi, N. Rega, J. M. Millam, M. Klene, J. E. Knox, J. B. Cross, 
 V. Bakken, C. Adamo, J. Jaramillo, R. Gomperts, R. E. Stratmann, 
 O. Yazyev, A. J. Austin, R. Cammi, C. Pomelli, J. W. Ochterski, 
 R. L. Martin, K. Morokuma, V. G. Zakrzewski, G. A. Voth, 
 P. Salvador, J. J. Dannenberg, S. Dapprich, A. D. Daniels, 
 O. Farkas, J. B. Foresman, J. V. Ortiz, J. Cioslowski, 
 and D. J. Fox, Gaussian, Inc., Wallingford CT, 2013.
 
 ******************************************
 Gaussian 09:  AS64L-G09RevD.01 24-Apr-2013
                 8-Dec-2018 
 ******************************************
 %Chk=CH400214
 %Mem=2GB
 %NProcShared=16
 Will use up to   16 processors via shared memory.
 ---------------------------------------------
 #T M05/Gen test Massage SCF=(tight,maxcyc=40)
 ---------------------------------------------
 -------
 M05 opt
 -------
 Symbolic Z-matrix:
 Charge =  0 Multiplicity = 1
 6                     0.        0.        0. 
 1                     0.59941   0.       -0.93097 
 1                    -0.80125   0.76031  -0.07692 
 1                    -0.45269  -0.99965   0.1475 
 1                     0.65454   0.23934   0.86039 
 6-Bq                  0.        0.        4.63154 
 1-Bq                  0.41175   0.257     5.62673 
 1-Bq                  0.67506  -0.71819   4.12707 
 1-Bq                 -1.00103  -0.45732   4.75316 
 1-Bq                 -0.08578   0.91851   4.01919 
 
                    Distance matrix (angstroms):
                    1          2          3          4          5
     1  C    0.000000
     2  H    1.107242   0.000000
     3  H    1.107242   1.808119   0.000000
     4  H    1.107243   1.808119   1.808119   0.000000
     5  H    1.107242   1.808119   1.808119   1.808119   0.000000
     6  C    4.631540   5.594709   4.836289   4.616371   3.835004
     7  H    5.647625   6.565413   5.852891   5.687567   4.772549
     8  H    4.243140   5.109334   4.694574   4.145851   3.404187
     9  H    4.878908   5.922824   4.985203   4.669791   4.287177
    10  H    4.123705   5.081066   4.161143   4.336359   3.314719
                    6          7          8          9         10
     6  C    0.000000
     7  H    1.107243   0.000000
     8  H    1.107243   1.808119   0.000000
     9  H    1.107243   1.808119   1.808119   0.000000
    10  H    1.107242   1.808119   1.808119   1.808119   0.000000
 Symmetry turned off by external request.
 This structure is nearly, but not quite of a higher symmetry.
 Consider Symm=Loose if the higher symmetry is desired.
 Framework group  C1[X(C2H8)]
 Deg. of freedom    24
 Rotational constants (GHZ):     76.6916055      2.8307037      2.8307037
   276 basis functions,   360 primitive gaussians,   310 cartesian basis functions
     5 alpha electrons        5 beta electrons
       nuclear repulsion energy        13.2261670112 Hartrees.
 IMHF & INEx in M05                  614413                  385587
 NAtoms=   10 NActive=   10 NUniq=   10 SFac= 1.00D+00 NAtFMM=   60 NAOKFM=F Big=F
 ExpMin= 2.53D-02 ExpMax= 8.24D+03 ExpMxC= 2.81D+02 IAcc=3 IRadAn=         5 AccDes= 0.00D+00
 Harris functional with IExCor= 1009 and IRadAn=       5 diagonalized for initial guess.
 HarFok:  IExCor= 1009 AccDes= 0.00D+00 IRadAn=         5 IDoV= 1 UseB2=F ITyADJ=14
 ICtDFT=  3500011 ScaDFX=  1.000000  1.000000  1.000000  1.000000
 FoFCou: FMM=F IPFlag=           0 FMFlag=      100000 FMFlg1=           0
         NFxFlg=           0 DoJE=T BraDBF=F KetDBF=T FulRan=T
         wScrn=  0.000000 ICntrl=     500 IOpCl=  0 I1Cent=   200000004 NGrid=           0
         NMat0=    1 NMatS0=      1 NMatT0=    0 NMatD0=    1 NMtDS0=    0 NMtDT0=    0
 Symmetry not used in FoFCou.
 SCF Done:  E(RM05) =  -45.8795773972     A.U. after   10 cycles
            NFock= 10  Conv=0.41D-08     -V/T= 2.0336

 **********************************************************************

            Population analysis using the SCF density.

 **********************************************************************

 Alpha  occ. eigenvalues --  -12.05202  -0.99430  -0.71140  -0.71140  -0.71139
 Alpha virt. eigenvalues --   -0.08969  -0.01743  -0.01736  -0.01730  -0.00480
 Alpha virt. eigenvalues --   -0.00312  -0.00289   0.02966   0.03701   0.04595
 Alpha virt. eigenvalues --    0.05052   0.05531   0.06794   0.07107   0.07588
 Alpha virt. eigenvalues --    0.08190   0.09630   0.10536   0.11269   0.11675
 Alpha virt. eigenvalues --    0.14107   0.17611   0.18763   0.19033   0.19735
 Alpha virt. eigenvalues --    0.20129   0.20967   0.21851   0.22025   0.23129
 Alpha virt. eigenvalues --    0.23781   0.24668   0.25026   0.25346   0.25988
 Alpha virt. eigenvalues --    0.26094   0.27351   0.27746   0.28275   0.29486
 Alpha virt. eigenvalues --    0.30740   0.32170   0.32537   0.33890   0.34771
 Alpha virt. eigenvalues --    0.35706   0.36119   0.37043   0.38407   0.39851
 Alpha virt. eigenvalues --    0.41813   0.42975   0.43526   0.44240   0.45598
 Alpha virt. eigenvalues --    0.46495   0.47189   0.49216   0.50135   0.51104
 Alpha virt. eigenvalues --    0.55347   0.56177   0.57025   0.57399   0.57696
 Alpha virt. eigenvalues --    0.62896   0.63122   0.63889   0.65052   0.66243
 Alpha virt. eigenvalues --    0.67225   0.67539   0.70508   0.71466   0.71659
 Alpha virt. eigenvalues --    0.73244   0.73742   0.75048   0.76729   0.77202
 Alpha virt. eigenvalues --    0.78750   0.80709   0.82514   0.83082   0.85571
 Alpha virt. eigenvalues --    0.87401   0.90266   0.91187   0.92741   0.93491
 Alpha virt. eigenvalues --    0.94448   0.94972   0.95422   0.96163   0.97146
 Alpha virt. eigenvalues --    0.98046   1.00279   1.01548   1.03381   1.04409
 Alpha virt. eigenvalues --    1.04957   1.05022   1.06893   1.07319   1.08661
 Alpha virt. eigenvalues --    1.10763   1.12359   1.12679   1.15438   1.15946
 Alpha virt. eigenvalues --    1.19969   1.20926   1.22927   1.23042   1.23562
 Alpha virt. eigenvalues --    1.24317   1.25416   1.26474   1.27313   1.28145
 Alpha virt. eigenvalues --    1.28931   1.29003   1.30762   1.34289   1.35934
 Alpha virt. eigenvalues --    1.37203   1.38075   1.38633   1.40576   1.41972
 Alpha virt. eigenvalues --    1.45177   1.46951   1.47965   1.49677   1.55195
 Alpha virt. eigenvalues --    1.55350   1.57098   1.60229   1.69825   1.69934
 Alpha virt. eigenvalues --    1.71036   1.73626   1.74403   1.77861   1.83261
 Alpha virt. eigenvalues --    1.84054   1.85878   1.89478   1.92824   1.93296
 Alpha virt. eigenvalues --    2.01619   2.02177   2.03999   2.05710   2.06972
 Alpha virt. eigenvalues --    2.09248   2.10282   2.25239   2.25922   2.29012
 Alpha virt. eigenvalues --    2.30842   2.43980   2.47111   2.47778   2.48007
 Alpha virt. eigenvalues --    2.49581   2.68224   2.68685   2.70456   2.81732
 Alpha virt. eigenvalues --    2.97249   2.97824   2.98513   2.99744   3.00818
 Alpha virt. eigenvalues --    3.04138   3.05820   3.06415   3.22073   3.22406
 Alpha virt. eigenvalues --    3.22730   3.43879   3.44010   3.46242   3.46392
 Alpha virt. eigenvalues --    3.47828   3.47963   3.48513   3.54783   3.55434
 Alpha virt. eigenvalues --    3.66749   3.89627   3.90507   3.91739   3.99390
 Alpha virt. eigenvalues --    3.99790   4.00049   4.02000   4.02663   4.02784
 Alpha virt. eigenvalues --    4.03192   4.03649   4.04003   4.05246   4.08317
 Alpha virt. eigenvalues --    4.16417   4.17538   4.17817   4.18208   4.21509
 Alpha virt. eigenvalues --    4.26614   4.36429   4.37165   4.37884   4.43065
 Alpha virt. eigenvalues --    4.43982   4.46424   4.46519   4.46652   4.47998
 Alpha virt. eigenvalues --    4.52424   4.56958   4.60510   4.60767   4.61256
 Alpha virt. eigenvalues --    4.76054   4.81219   4.88712   4.89291   4.89854
 Alpha virt. eigenvalues --    4.92162   4.93333   4.94137   5.02374   5.02598
 Alpha virt. eigenvalues --    5.14861   5.15043   5.15772   5.16351   5.16578
 Alpha virt. eigenvalues --    5.19431   5.29904   5.30398   5.31437   5.41403
 Alpha virt. eigenvalues --    5.43638   5.48007   5.48779   5.48846   5.51825
 Alpha virt. eigenvalues --    5.60507   5.61449   5.63812   6.14451   6.14761
 Alpha virt. eigenvalues --    6.15104   6.24953   6.25005   6.81252   6.81631
 Alpha virt. eigenvalues --    6.82508   6.96270   7.66346   7.66587   7.68053
 Alpha virt. eigenvalues --    8.03333   8.04989   8.07767  10.26884  14.88156
 Alpha virt. eigenvalues --   52.13927
          Condensed to atoms (all electrons):
 Mulliken charges:
               1
     1  C    0.419883
     2  H   -0.240061
     3  H   -0.125122
     4  H   -0.121218
     5  H    0.066514
     6  C   -0.000104
     7  H    0.000236
     8  H   -0.000915
     9  H    0.000956
    10  H   -0.000170
 Sum of Mulliken charges =   0.00000
 Mulliken charges with hydrogens summed into heavy atoms:
               1
     1  C   -0.000003
     6  C    0.000003
 Electronic spatial extent (au):  <R**2>=             35.5901
 Charge=              0.0000 electrons
 Dipole moment (field-independent basis, Debye):
    X=             -0.0002    Y=             -0.0000    Z=             -0.0005  Tot=              0.0005

 Test job not archived.
 1\1\GINC-CHIMERA-NODE53\SP\RM05\Gen\C2H8\CONNORNM\08-Dec-2018\0\\#T M0
 5/Gen test Massage SCF=(tight,maxcyc=40)\\M05 opt\\0,1\C,0,0.,0.,0.\H,
 0,0.59940581,0.,-0.9309665\H,0,-0.80125171,0.76030551,-0.07692322\H,0,
 -0.45269489,-0.99964902,0.14749622\H,0,0.65454079,0.2393435,0.86039351
 \C,0,0.,0.,4.63153988\H,0,0.41174577,0.25699982,5.62672955\H,0,0.67505
 779,-0.71819,4.12707376\H,0,-1.00102573,-0.45731987,4.75316217\H,0,-0.
 08577783,0.91851004,4.01919405\\Version=AS64L-G09RevD.01\HF=-45.879577
 4\RMSD=4.120e-09\Dipole=-0.0000936,-0.0000143,-0.0001834\Quadrupole=0.
 0005559,-0.0003613,-0.0001946,0.0000071,-0.0006627,-0.0000932\PG=C01 [
 X(C2H8)]\\@


 IF YOU GIVE EVERYONE A PIECE OF YOUR MIND,
 PRETTY SOON IT WILL BE ALL GONE.
 Job cpu time:       0 days  0 hours 14 minutes 25.9 seconds.
 File lengths (MBytes):  RWF=     41 Int=      0 D2E=      0 Chk=      4 Scr=      1
 Normal termination of Gaussian 09 at Sat Dec  8 13:52:57 2018.
