 Entering Gaussian System, Link 0=/data/szalewicgrp/connornm/opt/Gaussian/g09-M05-par/g09/g09
 AtFile(1): aug-cc-pVTZ.gbs
 Initial command:
 /data/szalewicgrp/connornm/opt/Gaussian/g09-M05-par/g09/l1.exe "/scratch/local/Gau-26463.inp" -scrdir="/scratch/local/"
 Entering Link 1 = /data/szalewicgrp/connornm/opt/Gaussian/g09-M05-par/g09/l1.exe PID=     26464.
  
 Copyright (c) 1988,1990,1992,1993,1995,1998,2003,2009,2013,
            Gaussian, Inc.  All Rights Reserved.
  
 This is part of the Gaussian(R) 09 program.  It is based on
 the Gaussian(R) 03 system (copyright 2003, Gaussian, Inc.),
 the Gaussian(R) 98 system (copyright 1998, Gaussian, Inc.),
 the Gaussian(R) 94 system (copyright 1995, Gaussian, Inc.),
 the Gaussian 92(TM) system (copyright 1992, Gaussian, Inc.),
 the Gaussian 90(TM) system (copyright 1990, Gaussian, Inc.),
 the Gaussian 88(TM) system (copyright 1988, Gaussian, Inc.),
 the Gaussian 86(TM) system (copyright 1986, Carnegie Mellon
 University), and the Gaussian 82(TM) system (copyright 1983,
 Carnegie Mellon University). Gaussian is a federally registered
 trademark of Gaussian, Inc.
  
 This software contains proprietary and confidential information,
 including trade secrets, belonging to Gaussian, Inc.
  
 This software is provided under written license and may be
 used, copied, transmitted, or stored only in accord with that
 written license.
  
 The following legend is applicable only to US Government
 contracts under FAR:
  
                    RESTRICTED RIGHTS LEGEND
  
 Use, reproduction and disclosure by the US Government is
 subject to restrictions as set forth in subparagraphs (a)
 and (c) of the Commercial Computer Software - Restricted
 Rights clause in FAR 52.227-19.
  
 Gaussian, Inc.
 340 Quinnipiac St., Bldg. 40, Wallingford CT 06492
  
  
 ---------------------------------------------------------------
 Warning -- This program may not be used in any manner that
 competes with the business of Gaussian, Inc. or will provide
 assistance to any competitor of Gaussian, Inc.  The licensee
 of this program is prohibited from giving any competitor of
 Gaussian, Inc. access to this program.  By using this program,
 the user acknowledges that Gaussian, Inc. is engaged in the
 business of creating and licensing software in the field of
 computational chemistry and represents and warrants to the
 licensee that it is not a competitor of Gaussian, Inc. and that
 it will not use this program in any manner prohibited above.
 ---------------------------------------------------------------
  

 Cite this work as:
 Gaussian 09, Revision D.01,
 M. J. Frisch, G. W. Trucks, H. B. Schlegel, G. E. Scuseria, 
 M. A. Robb, J. R. Cheeseman, G. Scalmani, V. Barone, B. Mennucci, 
 G. A. Petersson, H. Nakatsuji, M. Caricato, X. Li, H. P. Hratchian, 
 A. F. Izmaylov, J. Bloino, G. Zheng, J. L. Sonnenberg, M. Hada, 
 M. Ehara, K. Toyota, R. Fukuda, J. Hasegawa, M. Ishida, T. Nakajima, 
 Y. Honda, O. Kitao, H. Nakai, T. Vreven, J. A. Montgomery, Jr., 
 J. E. Peralta, F. Ogliaro, M. Bearpark, J. J. Heyd, E. Brothers, 
 K. N. Kudin, V. N. Staroverov, T. Keith, R. Kobayashi, J. Normand, 
 K. Raghavachari, A. Rendell, J. C. Burant, S. S. Iyengar, J. Tomasi, 
 M. Cossi, N. Rega, J. M. Millam, M. Klene, J. E. Knox, J. B. Cross, 
 V. Bakken, C. Adamo, J. Jaramillo, R. Gomperts, R. E. Stratmann, 
 O. Yazyev, A. J. Austin, R. Cammi, C. Pomelli, J. W. Ochterski, 
 R. L. Martin, K. Morokuma, V. G. Zakrzewski, G. A. Voth, 
 P. Salvador, J. J. Dannenberg, S. Dapprich, A. D. Daniels, 
 O. Farkas, J. B. Foresman, J. V. Ortiz, J. Cioslowski, 
 and D. J. Fox, Gaussian, Inc., Wallingford CT, 2013.
 
 ******************************************
 Gaussian 09:  AS64L-G09RevD.01 24-Apr-2013
                 8-Dec-2018 
 ******************************************
 %Chk=CH400195
 %Mem=2GB
 %NProcShared=16
 Will use up to   16 processors via shared memory.
 ---------------------------------------------
 #T M05/Gen test Massage SCF=(tight,maxcyc=40)
 ---------------------------------------------
 -------
 M05 opt
 -------
 Symbolic Z-matrix:
 Charge =  0 Multiplicity = 1
 6                     0.        0.        0. 
 1                     1.05525   0.        0.3353 
 1                    -0.17372   0.86263  -0.67208 
 1                    -0.21454  -0.94046  -0.54359 
 1                    -0.667     0.07783   0.88037 
 6-Bq                  0.        0.        3.15574 
 1-Bq                  0.81122  -0.43341   2.53924 
 1-Bq                  0.31736   0.02853   4.21614 
 1-Bq                 -0.21858   1.02828   2.80811 
 1-Bq                 -0.90999  -0.62341   3.05947 
 
                    Distance matrix (angstroms):
                    1          2          3          4          5
     1  C    0.000000
     2  H    1.107242   0.000000
     3  H    1.107242   1.808119   0.000000
     4  H    1.107243   1.808119   1.808119   0.000000
     5  H    1.107242   1.808119   1.808119   1.808119   0.000000
     6  C    3.155739   3.011384   3.927654   3.823028   2.372396
     7  H    2.700673   2.259365   3.600321   3.288330   2.279984
     8  H    4.228167   3.950474   4.983126   4.886403   3.478332
     9  H    2.998432   2.965600   3.484410   3.887137   2.195587
    10  H    3.252243   3.416420   4.083483   3.683238   2.302018
                    6          7          8          9         10
     6  C    0.000000
     7  H    1.107243   0.000000
     8  H    1.107242   1.808119   0.000000
     9  H    1.107243   1.808119   1.808119   0.000000
    10  H    1.107242   1.808119   1.808119   1.808119   0.000000
 Symmetry turned off by external request.
 This structure is nearly, but not quite of a higher symmetry.
 Consider Symm=Loose if the higher symmetry is desired.
 Framework group  C1[X(C2H8)]
 Deg. of freedom    24
 Rotational constants (GHZ):     76.6916055      5.8482692      5.8482692
   276 basis functions,   360 primitive gaussians,   310 cartesian basis functions
     5 alpha electrons        5 beta electrons
       nuclear repulsion energy        13.2261670204 Hartrees.
 IMHF & INEx in M05                  614413                  385587
 NAtoms=   10 NActive=   10 NUniq=   10 SFac= 1.00D+00 NAtFMM=   60 NAOKFM=F Big=F
 ExpMin= 2.53D-02 ExpMax= 8.24D+03 ExpMxC= 2.81D+02 IAcc=3 IRadAn=         5 AccDes= 0.00D+00
 Harris functional with IExCor= 1009 and IRadAn=       5 diagonalized for initial guess.
 HarFok:  IExCor= 1009 AccDes= 0.00D+00 IRadAn=         5 IDoV= 1 UseB2=F ITyADJ=14
 ICtDFT=  3500011 ScaDFX=  1.000000  1.000000  1.000000  1.000000
 FoFCou: FMM=F IPFlag=           0 FMFlag=      100000 FMFlg1=           0
         NFxFlg=           0 DoJE=T BraDBF=F KetDBF=T FulRan=T
         wScrn=  0.000000 ICntrl=     500 IOpCl=  0 I1Cent=   200000004 NGrid=           0
         NMat0=    1 NMatS0=      1 NMatT0=    0 NMatD0=    1 NMtDS0=    0 NMtDT0=    0
 Symmetry not used in FoFCou.
 SCF Done:  E(RM05) =  -45.8801316274     A.U. after   10 cycles
            NFock= 10  Conv=0.66D-08     -V/T= 2.0334

 **********************************************************************

            Population analysis using the SCF density.

 **********************************************************************

 Alpha  occ. eigenvalues --  -12.05212  -0.99439  -0.71155  -0.71150  -0.71146
 Alpha virt. eigenvalues --   -0.08951  -0.01750  -0.01731  -0.01719  -0.00483
 Alpha virt. eigenvalues --   -0.00425  -0.00332   0.03059   0.03974   0.04566
 Alpha virt. eigenvalues --    0.05676   0.06014   0.06571   0.07262   0.07607
 Alpha virt. eigenvalues --    0.08187   0.09431   0.11199   0.11823   0.12763
 Alpha virt. eigenvalues --    0.15525   0.17115   0.18845   0.19798   0.20104
 Alpha virt. eigenvalues --    0.21064   0.21643   0.22033   0.23235   0.23355
 Alpha virt. eigenvalues --    0.24154   0.24518   0.25018   0.25639   0.27073
 Alpha virt. eigenvalues --    0.27598   0.28608   0.29466   0.30493   0.31530
 Alpha virt. eigenvalues --    0.33225   0.33525   0.35457   0.35556   0.37403
 Alpha virt. eigenvalues --    0.37540   0.38920   0.40010   0.40952   0.41293
 Alpha virt. eigenvalues --    0.42763   0.43461   0.45667   0.46882   0.47207
 Alpha virt. eigenvalues --    0.49146   0.52105   0.52920   0.53321   0.54362
 Alpha virt. eigenvalues --    0.55715   0.57413   0.58544   0.59653   0.60614
 Alpha virt. eigenvalues --    0.62232   0.63227   0.63706   0.64261   0.66454
 Alpha virt. eigenvalues --    0.67125   0.68199   0.71128   0.72591   0.74095
 Alpha virt. eigenvalues --    0.74996   0.76651   0.78568   0.79311   0.81262
 Alpha virt. eigenvalues --    0.82057   0.83632   0.84928   0.86026   0.86738
 Alpha virt. eigenvalues --    0.87952   0.90518   0.91736   0.93328   0.94496
 Alpha virt. eigenvalues --    0.95401   0.96360   0.97839   0.99728   1.00405
 Alpha virt. eigenvalues --    1.01837   1.02738   1.03244   1.04885   1.06968
 Alpha virt. eigenvalues --    1.07907   1.10724   1.12286   1.12555   1.12939
 Alpha virt. eigenvalues --    1.13996   1.15963   1.18501   1.20225   1.21610
 Alpha virt. eigenvalues --    1.22132   1.22706   1.24099   1.25439   1.26223
 Alpha virt. eigenvalues --    1.29423   1.29549   1.32227   1.32658   1.35575
 Alpha virt. eigenvalues --    1.36160   1.36972   1.38325   1.40065   1.42637
 Alpha virt. eigenvalues --    1.43985   1.45478   1.48943   1.49483   1.50715
 Alpha virt. eigenvalues --    1.51337   1.53998   1.58711   1.62028   1.63619
 Alpha virt. eigenvalues --    1.66551   1.68078   1.71675   1.73683   1.74969
 Alpha virt. eigenvalues --    1.78652   1.79550   1.80674   1.82051   1.84621
 Alpha virt. eigenvalues --    1.87853   1.88685   1.93328   1.94625   1.96523
 Alpha virt. eigenvalues --    1.97598   1.98159   2.03463   2.05968   2.10151
 Alpha virt. eigenvalues --    2.10684   2.20386   2.27110   2.29297   2.34354
 Alpha virt. eigenvalues --    2.37949   2.41646   2.44639   2.53760   2.56236
 Alpha virt. eigenvalues --    2.62446   2.64993   2.66701   2.69518   2.81056
 Alpha virt. eigenvalues --    3.01150   3.02090   3.04273   3.06006   3.08264
 Alpha virt. eigenvalues --    3.12315   3.13695   3.22399   3.23778   3.25012
 Alpha virt. eigenvalues --    3.28758   3.45180   3.48100   3.48442   3.50041
 Alpha virt. eigenvalues --    3.53182   3.54805   3.56234   3.57885   3.64074
 Alpha virt. eigenvalues --    3.81034   3.90212   3.91990   3.93924   3.94721
 Alpha virt. eigenvalues --    3.99297   4.00431   4.04246   4.05233   4.06714
 Alpha virt. eigenvalues --    4.07501   4.11130   4.12372   4.12650   4.17836
 Alpha virt. eigenvalues --    4.19437   4.20633   4.22756   4.25699   4.27757
 Alpha virt. eigenvalues --    4.29540   4.33013   4.35173   4.36990   4.45295
 Alpha virt. eigenvalues --    4.45742   4.49226   4.50136   4.50249   4.55568
 Alpha virt. eigenvalues --    4.57434   4.59388   4.60306   4.63603   4.73378
 Alpha virt. eigenvalues --    4.76982   4.85915   4.88095   4.89128   4.89931
 Alpha virt. eigenvalues --    4.90471   4.95140   5.00636   5.03131   5.05307
 Alpha virt. eigenvalues --    5.08425   5.14948   5.17763   5.18947   5.19093
 Alpha virt. eigenvalues --    5.24990   5.25365   5.26442   5.35909   5.38820
 Alpha virt. eigenvalues --    5.40448   5.47161   5.48252   5.49923   5.53206
 Alpha virt. eigenvalues --    5.65543   5.67896   5.71341   6.09070   6.09991
 Alpha virt. eigenvalues --    6.11375   6.18814   6.19157   6.77147   6.78696
 Alpha virt. eigenvalues --    6.79441   6.93417   7.59800   7.61377   7.67489
 Alpha virt. eigenvalues --    8.02493   8.06053   8.10217  10.43189  15.09479
 Alpha virt. eigenvalues --   52.87115
          Condensed to atoms (all electrons):
 Mulliken charges:
               1
     1  C    0.188550
     2  H   -0.094173
     3  H   -0.332293
     4  H   -0.265794
     5  H    0.333684
     6  C    0.024122
     7  H    0.075397
     8  H    0.003565
     9  H    0.031368
    10  H    0.035575
 Sum of Mulliken charges =  -0.00000
 Mulliken charges with hydrogens summed into heavy atoms:
               1
     1  C   -0.170026
     6  C    0.170026
 Electronic spatial extent (au):  <R**2>=             35.5905
 Charge=             -0.0000 electrons
 Dipole moment (field-independent basis, Debye):
    X=             -0.0003    Y=             -0.0002    Z=              0.0001  Tot=              0.0003

 Test job not archived.
 1\1\GINC-CHIMERA-NODE51\SP\RM05\Gen\C2H8\CONNORNM\08-Dec-2018\0\\#T M0
 5/Gen test Massage SCF=(tight,maxcyc=40)\\M05 opt\\0,1\C,0,0.,0.,0.\H,
 0,1.05525326,0.,0.33530062\H,0,-0.17371636,0.86262595,-0.67207518\H,0,
 -0.21454128,-0.94046062,-0.54359159\H,0,-0.66699562,0.07783467,0.88036
 615\C,0,0.,0.,3.15573942\H,0,0.81121508,-0.43340582,2.53923682\H,0,0.3
 173576,0.02853123,4.21614315\H,0,-0.21858123,1.02827977,2.80810611\H,0
 ,-0.90999145,-0.62340518,3.05947159\\Version=AS64L-G09RevD.01\HF=-45.8
 801316\RMSD=6.595e-09\Dipole=-0.0000993,-0.0000695,0.0000262\Quadrupol
 e=-0.0007179,-0.0008113,0.0015293,-0.0001241,0.0011996,-0.0003022\PG=C
 01 [X(C2H8)]\\@


 WE STILL HAVE JUDGEMENT HERE,
 THAT WE TEACH BUT BLOODY INSTRUCTIONS,
 WHICH, BEING TAUGHT,
 RETURN TO PLAGUE THE INVENTOR.
           MACBETH ACT I, SCENE VII
 Job cpu time:       0 days  0 hours 17 minutes 53.3 seconds.
 File lengths (MBytes):  RWF=     41 Int=      0 D2E=      0 Chk=      4 Scr=      1
 Normal termination of Gaussian 09 at Sat Dec  8 13:52:22 2018.
