 Entering Gaussian System, Link 0=/data/szalewicgrp/connornm/opt/Gaussian/g09-M05-par/g09/g09
 AtFile(1): aug-cc-pVTZ.gbs
 Initial command:
 /data/szalewicgrp/connornm/opt/Gaussian/g09-M05-par/g09/l1.exe "/scratch/local/Gau-46420.inp" -scrdir="/scratch/local/"
 Entering Link 1 = /data/szalewicgrp/connornm/opt/Gaussian/g09-M05-par/g09/l1.exe PID=     46421.
  
 Copyright (c) 1988,1990,1992,1993,1995,1998,2003,2009,2013,
            Gaussian, Inc.  All Rights Reserved.
  
 This is part of the Gaussian(R) 09 program.  It is based on
 the Gaussian(R) 03 system (copyright 2003, Gaussian, Inc.),
 the Gaussian(R) 98 system (copyright 1998, Gaussian, Inc.),
 the Gaussian(R) 94 system (copyright 1995, Gaussian, Inc.),
 the Gaussian 92(TM) system (copyright 1992, Gaussian, Inc.),
 the Gaussian 90(TM) system (copyright 1990, Gaussian, Inc.),
 the Gaussian 88(TM) system (copyright 1988, Gaussian, Inc.),
 the Gaussian 86(TM) system (copyright 1986, Carnegie Mellon
 University), and the Gaussian 82(TM) system (copyright 1983,
 Carnegie Mellon University). Gaussian is a federally registered
 trademark of Gaussian, Inc.
  
 This software contains proprietary and confidential information,
 including trade secrets, belonging to Gaussian, Inc.
  
 This software is provided under written license and may be
 used, copied, transmitted, or stored only in accord with that
 written license.
  
 The following legend is applicable only to US Government
 contracts under FAR:
  
                    RESTRICTED RIGHTS LEGEND
  
 Use, reproduction and disclosure by the US Government is
 subject to restrictions as set forth in subparagraphs (a)
 and (c) of the Commercial Computer Software - Restricted
 Rights clause in FAR 52.227-19.
  
 Gaussian, Inc.
 340 Quinnipiac St., Bldg. 40, Wallingford CT 06492
  
  
 ---------------------------------------------------------------
 Warning -- This program may not be used in any manner that
 competes with the business of Gaussian, Inc. or will provide
 assistance to any competitor of Gaussian, Inc.  The licensee
 of this program is prohibited from giving any competitor of
 Gaussian, Inc. access to this program.  By using this program,
 the user acknowledges that Gaussian, Inc. is engaged in the
 business of creating and licensing software in the field of
 computational chemistry and represents and warrants to the
 licensee that it is not a competitor of Gaussian, Inc. and that
 it will not use this program in any manner prohibited above.
 ---------------------------------------------------------------
  

 Cite this work as:
 Gaussian 09, Revision D.01,
 M. J. Frisch, G. W. Trucks, H. B. Schlegel, G. E. Scuseria, 
 M. A. Robb, J. R. Cheeseman, G. Scalmani, V. Barone, B. Mennucci, 
 G. A. Petersson, H. Nakatsuji, M. Caricato, X. Li, H. P. Hratchian, 
 A. F. Izmaylov, J. Bloino, G. Zheng, J. L. Sonnenberg, M. Hada, 
 M. Ehara, K. Toyota, R. Fukuda, J. Hasegawa, M. Ishida, T. Nakajima, 
 Y. Honda, O. Kitao, H. Nakai, T. Vreven, J. A. Montgomery, Jr., 
 J. E. Peralta, F. Ogliaro, M. Bearpark, J. J. Heyd, E. Brothers, 
 K. N. Kudin, V. N. Staroverov, T. Keith, R. Kobayashi, J. Normand, 
 K. Raghavachari, A. Rendell, J. C. Burant, S. S. Iyengar, J. Tomasi, 
 M. Cossi, N. Rega, J. M. Millam, M. Klene, J. E. Knox, J. B. Cross, 
 V. Bakken, C. Adamo, J. Jaramillo, R. Gomperts, R. E. Stratmann, 
 O. Yazyev, A. J. Austin, R. Cammi, C. Pomelli, J. W. Ochterski, 
 R. L. Martin, K. Morokuma, V. G. Zakrzewski, G. A. Voth, 
 P. Salvador, J. J. Dannenberg, S. Dapprich, A. D. Daniels, 
 O. Farkas, J. B. Foresman, J. V. Ortiz, J. Cioslowski, 
 and D. J. Fox, Gaussian, Inc., Wallingford CT, 2013.
 
 ******************************************
 Gaussian 09:  AS64L-G09RevD.01 24-Apr-2013
                 7-Dec-2018 
 ******************************************
 %Chk=CH400177
 %Mem=2GB
 %NProcShared=16
 Will use up to   16 processors via shared memory.
 ---------------------------------------------
 #T M05/Gen test Massage SCF=(tight,maxcyc=40)
 ---------------------------------------------
 -------
 M05 opt
 -------
 Symbolic Z-matrix:
 Charge =  0 Multiplicity = 1
 6                     0.        0.        0. 
 1                     0.7835    0.       -0.78237 
 1                    -0.47589  -0.99871   0.04576 
 1                     0.45733   0.23619   0.98033 
 1                    -0.76495   0.76252  -0.24372 
 6-Bq                  0.        0.        3.30972 
 1-Bq                  0.71107   0.08132   2.46488 
 1-Bq                  0.55951   0.00848   4.26516 
 1-Bq                 -0.70166   0.85619   3.28529 
 1-Bq                 -0.56891  -0.94599   3.22355 
 
                    Distance matrix (angstroms):
                    1          2          3          4          5
     1  C    0.000000
     2  H    1.107243   0.000000
     3  H    1.107243   1.808119   0.000000
     4  H    1.107243   1.808119   1.808119   0.000000
     5  H    1.107243   1.808119   1.808119   1.808119   0.000000
     6  C    3.309719   4.166424   3.446347   2.385579   3.713963
     7  H    2.566680   3.249075   2.903006   1.514016   3.158980
     8  H    4.301710   5.052507   4.459797   3.294298   4.759492
     9  H    3.466775   4.414144   3.739811   2.653395   3.530822
    10  H    3.407319   4.332589   3.179585   2.735462   3.870323
                    6          7          8          9         10
     6  C    0.000000
     7  H    1.107242   0.000000
     8  H    1.107243   1.808119   0.000000
     9  H    1.107243   1.808119   1.808119   0.000000
    10  H    1.107243   1.808119   1.808119   1.808119   0.000000
 Symmetry turned off by external request.
 This structure is nearly, but not quite of a higher symmetry.
 Consider Symm=Loose if the higher symmetry is desired.
 Framework group  C1[X(C2H8)]
 Deg. of freedom    24
 Rotational constants (GHZ):     76.6916053      5.3538678      5.3538678
   276 basis functions,   360 primitive gaussians,   310 cartesian basis functions
     5 alpha electrons        5 beta electrons
       nuclear repulsion energy        13.2261669662 Hartrees.
 IMHF & INEx in M05                  614413                  385587
 NAtoms=   10 NActive=   10 NUniq=   10 SFac= 1.00D+00 NAtFMM=   60 NAOKFM=F Big=F
 ExpMin= 2.53D-02 ExpMax= 8.24D+03 ExpMxC= 2.81D+02 IAcc=3 IRadAn=         5 AccDes= 0.00D+00
 Harris functional with IExCor= 1009 and IRadAn=       5 diagonalized for initial guess.
 HarFok:  IExCor= 1009 AccDes= 0.00D+00 IRadAn=         5 IDoV= 1 UseB2=F ITyADJ=14
 ICtDFT=  3500011 ScaDFX=  1.000000  1.000000  1.000000  1.000000
 FoFCou: FMM=F IPFlag=           0 FMFlag=      100000 FMFlg1=           0
         NFxFlg=           0 DoJE=T BraDBF=F KetDBF=T FulRan=T
         wScrn=  0.000000 ICntrl=     500 IOpCl=  0 I1Cent=   200000004 NGrid=           0
         NMat0=    1 NMatS0=      1 NMatT0=    0 NMatD0=    1 NMtDS0=    0 NMtDT0=    0
 Symmetry not used in FoFCou.
 SCF Done:  E(RM05) =  -40.9122871154     A.U. after    7 cycles
            NFock=  7  Conv=0.57D-08     -V/T= 2.0127

 **********************************************************************

            Population analysis using the SCF density.

 **********************************************************************

 Alpha  occ. eigenvalues --  -10.74526  -0.82769  -0.48754  -0.48752  -0.48751
 Alpha virt. eigenvalues --   -0.00128   0.02348   0.02774   0.02904   0.04940
 Alpha virt. eigenvalues --    0.05029   0.05447   0.07193   0.07904   0.09012
 Alpha virt. eigenvalues --    0.09675   0.10553   0.11611   0.11930   0.12778
 Alpha virt. eigenvalues --    0.14060   0.15025   0.15292   0.16655   0.17729
 Alpha virt. eigenvalues --    0.21312   0.21958   0.22549   0.25165   0.26190
 Alpha virt. eigenvalues --    0.26701   0.27657   0.28163   0.28640   0.29302
 Alpha virt. eigenvalues --    0.29992   0.30327   0.30741   0.31701   0.32184
 Alpha virt. eigenvalues --    0.33244   0.34123   0.35412   0.36035   0.36121
 Alpha virt. eigenvalues --    0.36534   0.37769   0.38784   0.40327   0.41442
 Alpha virt. eigenvalues --    0.42307   0.43387   0.44712   0.46029   0.46221
 Alpha virt. eigenvalues --    0.47093   0.49586   0.51443   0.52023   0.54450
 Alpha virt. eigenvalues --    0.55304   0.56931   0.58775   0.59775   0.63108
 Alpha virt. eigenvalues --    0.64533   0.64753   0.67995   0.68727   0.70802
 Alpha virt. eigenvalues --    0.71917   0.73456   0.74014   0.78137   0.78999
 Alpha virt. eigenvalues --    0.79502   0.81685   0.84427   0.86147   0.86558
 Alpha virt. eigenvalues --    0.88131   0.89528   0.91645   0.92964   0.93788
 Alpha virt. eigenvalues --    0.94483   0.95002   0.96348   0.97458   0.97954
 Alpha virt. eigenvalues --    0.98982   0.99788   1.00459   1.01576   1.02728
 Alpha virt. eigenvalues --    1.03172   1.04699   1.05457   1.06656   1.07380
 Alpha virt. eigenvalues --    1.07869   1.09292   1.10868   1.11849   1.13409
 Alpha virt. eigenvalues --    1.14318   1.16796   1.18443   1.19510   1.20888
 Alpha virt. eigenvalues --    1.21886   1.24051   1.24993   1.25737   1.28181
 Alpha virt. eigenvalues --    1.30229   1.32399   1.34165   1.35242   1.35815
 Alpha virt. eigenvalues --    1.38516   1.40119   1.42031   1.44153   1.44957
 Alpha virt. eigenvalues --    1.47423   1.48326   1.49569   1.52578   1.54515
 Alpha virt. eigenvalues --    1.56991   1.57420   1.59516   1.63350   1.65230
 Alpha virt. eigenvalues --    1.69593   1.70663   1.72510   1.74964   1.77467
 Alpha virt. eigenvalues --    1.78198   1.79414   1.81593   1.82418   1.85463
 Alpha virt. eigenvalues --    1.89471   1.91522   1.94361   1.97459   1.99198
 Alpha virt. eigenvalues --    2.00502   2.00941   2.01598   2.03541   2.04648
 Alpha virt. eigenvalues --    2.05818   2.09937   2.11975   2.16692   2.21749
 Alpha virt. eigenvalues --    2.22807   2.28728   2.33183   2.39021   2.43640
 Alpha virt. eigenvalues --    2.54236   2.62881   2.65119   2.68814   2.72169
 Alpha virt. eigenvalues --    2.82443   2.91191   2.93639   2.97495   3.07923
 Alpha virt. eigenvalues --    3.22010   3.24704   3.26362   3.27808   3.29760
 Alpha virt. eigenvalues --    3.30669   3.36819   3.41619   3.60186   3.60360
 Alpha virt. eigenvalues --    3.70451   3.71393   3.72358   3.73363   3.75198
 Alpha virt. eigenvalues --    3.79577   3.80210   3.83331   3.85878   3.87283
 Alpha virt. eigenvalues --    3.88426   3.96398   4.01357   4.01717   4.04250
 Alpha virt. eigenvalues --    4.09693   4.12281   4.17809   4.19105   4.20392
 Alpha virt. eigenvalues --    4.22059   4.23347   4.30053   4.31438   4.33401
 Alpha virt. eigenvalues --    4.35455   4.37103   4.40232   4.43496   4.44177
 Alpha virt. eigenvalues --    4.49165   4.51293   4.51906   4.53149   4.54722
 Alpha virt. eigenvalues --    4.54992   4.58471   4.58812   4.62336   4.66545
 Alpha virt. eigenvalues --    4.75025   4.79018   4.81103   4.83568   4.84934
 Alpha virt. eigenvalues --    4.89536   4.90356   4.97415   5.05201   5.09580
 Alpha virt. eigenvalues --    5.13872   5.14316   5.18607   5.20595   5.23783
 Alpha virt. eigenvalues --    5.25095   5.26557   5.29459   5.31203   5.34185
 Alpha virt. eigenvalues --    5.39921   5.40373   5.43886   5.45565   5.48130
 Alpha virt. eigenvalues --    5.53048   5.60509   5.61541   5.74784   5.82082
 Alpha virt. eigenvalues --    6.07077   6.07983   6.10195   6.10708   6.11574
 Alpha virt. eigenvalues --    6.13489   6.18412   6.43821   6.76255   6.81281
 Alpha virt. eigenvalues --    6.89536   6.92083   7.58451   7.61196   7.66463
 Alpha virt. eigenvalues --    7.98321   8.05181   8.08506  10.32011  17.35518
 Alpha virt. eigenvalues --   52.87737
          Condensed to atoms (all electrons):
 Mulliken charges:
               1
     1  C   -1.990104
     2  H    0.402424
     3  H    0.415357
     4  H    0.785081
     5  H    0.434880
     6  C    0.026785
     7  H   -0.086271
     8  H    0.005264
     9  H    0.008155
    10  H   -0.001572
 Sum of Mulliken charges =  -0.00000
 Mulliken charges with hydrogens summed into heavy atoms:
               1
     1  C    0.047639
     6  C   -0.047639
 Electronic spatial extent (au):  <R**2>=             36.5419
 Charge=             -0.0000 electrons
 Dipole moment (field-independent basis, Debye):
    X=              0.0000    Y=              0.0001    Z=              0.0003  Tot=              0.0003

 Test job not archived.
 1\1\GINC-CHIMERA-NODE15\SP\RM05\Gen\C2H8\CONNORNM\07-Dec-2018\0\\#T M0
 5/Gen test Massage SCF=(tight,maxcyc=40)\\M05 opt\\0,1\C,0,0.,0.,0.\H,
 0,0.78350487,0.,-0.78237209\H,0,-0.47588635,-0.99871117,0.04576174\H,0
 ,0.45733135,0.23619029,0.98033063\H,0,-0.76494986,0.76252088,-0.243720
 29\C,0,0.,0.,3.30971923\H,0,0.71106565,0.08132107,2.46487695\H,0,0.559
 50579,0.00847931,4.26516014\H,0,-0.70165954,0.85619106,3.28529143\H,0,
 -0.56891189,-0.94599144,3.2235484\\Version=AS64L-G09RevD.01\HF=-40.912
 2871\RMSD=5.700e-09\Dipole=0.0000047,0.0000491,0.0001283\Quadrupole=0.
 0007061,-0.0002641,-0.000442,0.0007518,-0.0001687,0.0004051\PG=C01 [X(
 C2H8)]\\@


 EVERYTHING'S GOT A MORAL, IF ONLY YOU CAN FIND IT.

                                    -- LEWIS CARROL, ALICE IN WONDERLAND
 Job cpu time:       0 days  0 hours 12 minutes 30.3 seconds.
 File lengths (MBytes):  RWF=     41 Int=      0 D2E=      0 Chk=      4 Scr=      1
 Normal termination of Gaussian 09 at Fri Dec  7 14:01:27 2018.
