 Entering Gaussian System, Link 0=/data/szalewicgrp/connornm/opt/Gaussian/g09-M05-par/g09/g09
 AtFile(1): aug-cc-pVTZ.gbs
 Initial command:
 /data/szalewicgrp/connornm/opt/Gaussian/g09-M05-par/g09/l1.exe "/scratch/local/Gau-29911.inp" -scrdir="/scratch/local/"
 Entering Link 1 = /data/szalewicgrp/connornm/opt/Gaussian/g09-M05-par/g09/l1.exe PID=     29912.
  
 Copyright (c) 1988,1990,1992,1993,1995,1998,2003,2009,2013,
            Gaussian, Inc.  All Rights Reserved.
  
 This is part of the Gaussian(R) 09 program.  It is based on
 the Gaussian(R) 03 system (copyright 2003, Gaussian, Inc.),
 the Gaussian(R) 98 system (copyright 1998, Gaussian, Inc.),
 the Gaussian(R) 94 system (copyright 1995, Gaussian, Inc.),
 the Gaussian 92(TM) system (copyright 1992, Gaussian, Inc.),
 the Gaussian 90(TM) system (copyright 1990, Gaussian, Inc.),
 the Gaussian 88(TM) system (copyright 1988, Gaussian, Inc.),
 the Gaussian 86(TM) system (copyright 1986, Carnegie Mellon
 University), and the Gaussian 82(TM) system (copyright 1983,
 Carnegie Mellon University). Gaussian is a federally registered
 trademark of Gaussian, Inc.
  
 This software contains proprietary and confidential information,
 including trade secrets, belonging to Gaussian, Inc.
  
 This software is provided under written license and may be
 used, copied, transmitted, or stored only in accord with that
 written license.
  
 The following legend is applicable only to US Government
 contracts under FAR:
  
                    RESTRICTED RIGHTS LEGEND
  
 Use, reproduction and disclosure by the US Government is
 subject to restrictions as set forth in subparagraphs (a)
 and (c) of the Commercial Computer Software - Restricted
 Rights clause in FAR 52.227-19.
  
 Gaussian, Inc.
 340 Quinnipiac St., Bldg. 40, Wallingford CT 06492
  
  
 ---------------------------------------------------------------
 Warning -- This program may not be used in any manner that
 competes with the business of Gaussian, Inc. or will provide
 assistance to any competitor of Gaussian, Inc.  The licensee
 of this program is prohibited from giving any competitor of
 Gaussian, Inc. access to this program.  By using this program,
 the user acknowledges that Gaussian, Inc. is engaged in the
 business of creating and licensing software in the field of
 computational chemistry and represents and warrants to the
 licensee that it is not a competitor of Gaussian, Inc. and that
 it will not use this program in any manner prohibited above.
 ---------------------------------------------------------------
  

 Cite this work as:
 Gaussian 09, Revision D.01,
 M. J. Frisch, G. W. Trucks, H. B. Schlegel, G. E. Scuseria, 
 M. A. Robb, J. R. Cheeseman, G. Scalmani, V. Barone, B. Mennucci, 
 G. A. Petersson, H. Nakatsuji, M. Caricato, X. Li, H. P. Hratchian, 
 A. F. Izmaylov, J. Bloino, G. Zheng, J. L. Sonnenberg, M. Hada, 
 M. Ehara, K. Toyota, R. Fukuda, J. Hasegawa, M. Ishida, T. Nakajima, 
 Y. Honda, O. Kitao, H. Nakai, T. Vreven, J. A. Montgomery, Jr., 
 J. E. Peralta, F. Ogliaro, M. Bearpark, J. J. Heyd, E. Brothers, 
 K. N. Kudin, V. N. Staroverov, T. Keith, R. Kobayashi, J. Normand, 
 K. Raghavachari, A. Rendell, J. C. Burant, S. S. Iyengar, J. Tomasi, 
 M. Cossi, N. Rega, J. M. Millam, M. Klene, J. E. Knox, J. B. Cross, 
 V. Bakken, C. Adamo, J. Jaramillo, R. Gomperts, R. E. Stratmann, 
 O. Yazyev, A. J. Austin, R. Cammi, C. Pomelli, J. W. Ochterski, 
 R. L. Martin, K. Morokuma, V. G. Zakrzewski, G. A. Voth, 
 P. Salvador, J. J. Dannenberg, S. Dapprich, A. D. Daniels, 
 O. Farkas, J. B. Foresman, J. V. Ortiz, J. Cioslowski, 
 and D. J. Fox, Gaussian, Inc., Wallingford CT, 2013.
 
 ******************************************
 Gaussian 09:  AS64L-G09RevD.01 24-Apr-2013
                 8-Dec-2018 
 ******************************************
 %Chk=CH400193
 %Mem=2GB
 %NProcShared=16
 Will use up to   16 processors via shared memory.
 ---------------------------------------------
 #T M05/Gen test Massage SCF=(tight,maxcyc=40)
 ---------------------------------------------
 -------
 M05 opt
 -------
 Symbolic Z-matrix:
 Charge =  0 Multiplicity = 1
 6                     0.        0.        0. 
 1                     1.10575   0.       -0.05739 
 1                    -0.37583   1.03452  -0.12042 
 1                    -0.4114   -0.63828  -0.80582 
 1                    -0.31853  -0.39625   0.98362 
 6-Bq                  0.        0.        4.47644 
 1-Bq                  0.3765    0.68167   5.26356 
 1-Bq                  0.45379   0.27275   3.50399 
 1-Bq                  0.27125  -1.04295   4.73073 
 1-Bq                 -1.10154   0.08853   4.40748 
 
                    Distance matrix (angstroms):
                    1          2          3          4          5
     1  C    0.000000
     2  H    1.107243   0.000000
     3  H    1.107243   1.808119   0.000000
     4  H    1.107242   1.808119   1.808119   0.000000
     5  H    1.107243   1.808119   1.808119   1.808119   0.000000
     6  C    4.476440   4.666722   4.726794   5.336561   3.529624
     7  H    5.320857   5.413779   5.447728   6.261023   4.467981
     8  H    3.543759   3.630818   3.795371   4.489200   2.719607
     9  H    4.851919   4.970936   5.316787   5.593131   3.847970
    10  H    4.543914   4.981474   4.682250   5.308771   3.545554
                    6          7          8          9         10
     6  C    0.000000
     7  H    1.107242   0.000000
     8  H    1.107243   1.808119   0.000000
     9  H    1.107243   1.808119   1.808119   0.000000
    10  H    1.107242   1.808119   1.808119   1.808119   0.000000
 Symmetry turned off by external request.
 This structure is nearly, but not quite of a higher symmetry.
 Consider Symm=Loose if the higher symmetry is desired.
 Framework group  C1[X(C2H8)]
 Deg. of freedom    24
 Rotational constants (GHZ):     76.6916052      3.0223939      3.0223939
   276 basis functions,   360 primitive gaussians,   310 cartesian basis functions
     5 alpha electrons        5 beta electrons
       nuclear repulsion energy        13.2261669704 Hartrees.
 IMHF & INEx in M05                  614413                  385587
 NAtoms=   10 NActive=   10 NUniq=   10 SFac= 1.00D+00 NAtFMM=   60 NAOKFM=F Big=F
 ExpMin= 2.53D-02 ExpMax= 8.24D+03 ExpMxC= 2.81D+02 IAcc=3 IRadAn=         5 AccDes= 0.00D+00
 Harris functional with IExCor= 1009 and IRadAn=       5 diagonalized for initial guess.
 HarFok:  IExCor= 1009 AccDes= 0.00D+00 IRadAn=         5 IDoV= 1 UseB2=F ITyADJ=14
 ICtDFT=  3500011 ScaDFX=  1.000000  1.000000  1.000000  1.000000
 FoFCou: FMM=F IPFlag=           0 FMFlag=      100000 FMFlg1=           0
         NFxFlg=           0 DoJE=T BraDBF=F KetDBF=T FulRan=T
         wScrn=  0.000000 ICntrl=     500 IOpCl=  0 I1Cent=   200000004 NGrid=           0
         NMat0=    1 NMatS0=      1 NMatT0=    0 NMatD0=    1 NMtDS0=    0 NMtDT0=    0
 Symmetry not used in FoFCou.
 SCF Done:  E(RM05) =  -45.9508287368     A.U. after   10 cycles
            NFock= 10  Conv=0.40D-08     -V/T= 2.0338

 **********************************************************************

            Population analysis using the SCF density.

 **********************************************************************

 Alpha  occ. eigenvalues --  -12.07071  -0.99693  -0.71482  -0.71480  -0.71479
 Alpha virt. eigenvalues --   -0.09145  -0.01922  -0.01910  -0.01900  -0.00618
 Alpha virt. eigenvalues --   -0.00499  -0.00457   0.02865   0.03982   0.04631
 Alpha virt. eigenvalues --    0.05045   0.05662   0.06218   0.07024   0.07376
 Alpha virt. eigenvalues --    0.08200   0.09910   0.10601   0.11730   0.12320
 Alpha virt. eigenvalues --    0.13496   0.16773   0.19014   0.19783   0.19901
 Alpha virt. eigenvalues --    0.20310   0.21078   0.22098   0.22699   0.23114
 Alpha virt. eigenvalues --    0.23772   0.24412   0.24863   0.25249   0.25371
 Alpha virt. eigenvalues --    0.26332   0.27173   0.27723   0.28189   0.30184
 Alpha virt. eigenvalues --    0.30590   0.31238   0.33606   0.34676   0.35056
 Alpha virt. eigenvalues --    0.35838   0.36842   0.37833   0.38462   0.40063
 Alpha virt. eigenvalues --    0.41559   0.42716   0.43964   0.45287   0.45705
 Alpha virt. eigenvalues --    0.47903   0.48372   0.50431   0.53575   0.55027
 Alpha virt. eigenvalues --    0.55343   0.56436   0.57479   0.57883   0.59241
 Alpha virt. eigenvalues --    0.62426   0.63225   0.64028   0.65305   0.65783
 Alpha virt. eigenvalues --    0.66626   0.69436   0.70306   0.71373   0.71614
 Alpha virt. eigenvalues --    0.72823   0.74647   0.75470   0.76095   0.77819
 Alpha virt. eigenvalues --    0.78712   0.82180   0.83986   0.84553   0.86426
 Alpha virt. eigenvalues --    0.87573   0.90360   0.90781   0.91948   0.93246
 Alpha virt. eigenvalues --    0.93584   0.94298   0.95282   0.97450   0.98399
 Alpha virt. eigenvalues --    0.99007   1.00274   1.02076   1.03278   1.04610
 Alpha virt. eigenvalues --    1.06463   1.07031   1.07747   1.08171   1.09304
 Alpha virt. eigenvalues --    1.10950   1.11883   1.13685   1.16862   1.18080
 Alpha virt. eigenvalues --    1.19946   1.21783   1.22490   1.23100   1.24964
 Alpha virt. eigenvalues --    1.25432   1.26005   1.27307   1.27374   1.28131
 Alpha virt. eigenvalues --    1.28793   1.29993   1.34097   1.35213   1.37144
 Alpha virt. eigenvalues --    1.38128   1.38571   1.38878   1.41611   1.44482
 Alpha virt. eigenvalues --    1.46704   1.47660   1.48397   1.49725   1.54734
 Alpha virt. eigenvalues --    1.58075   1.59023   1.60227   1.68718   1.71061
 Alpha virt. eigenvalues --    1.73017   1.75500   1.78543   1.80662   1.83360
 Alpha virt. eigenvalues --    1.85526   1.87062   1.89163   1.92844   1.97638
 Alpha virt. eigenvalues --    2.01642   2.02330   2.03817   2.05518   2.06350
 Alpha virt. eigenvalues --    2.08622   2.13027   2.25953   2.27612   2.29089
 Alpha virt. eigenvalues --    2.36244   2.44874   2.47471   2.47563   2.50420
 Alpha virt. eigenvalues --    2.50967   2.67819   2.69586   2.71689   2.80787
 Alpha virt. eigenvalues --    2.96798   2.98161   2.99214   3.00122   3.02374
 Alpha virt. eigenvalues --    3.04098   3.07118   3.09118   3.21571   3.22847
 Alpha virt. eigenvalues --    3.24936   3.43632   3.44973   3.45939   3.46522
 Alpha virt. eigenvalues --    3.47477   3.48311   3.51390   3.54944   3.59776
 Alpha virt. eigenvalues --    3.67847   3.89088   3.89928   3.91739   3.99086
 Alpha virt. eigenvalues --    4.00408   4.00480   4.01701   4.02520   4.03309
 Alpha virt. eigenvalues --    4.03684   4.04355   4.04733   4.07967   4.11360
 Alpha virt. eigenvalues --    4.16746   4.17513   4.17886   4.20140   4.21286
 Alpha virt. eigenvalues --    4.27480   4.36189   4.37061   4.39931   4.42400
 Alpha virt. eigenvalues --    4.43591   4.46139   4.46654   4.48859   4.50300
 Alpha virt. eigenvalues --    4.53235   4.55991   4.60134   4.61170   4.62741
 Alpha virt. eigenvalues --    4.76430   4.81100   4.88439   4.89178   4.89581
 Alpha virt. eigenvalues --    4.92178   4.92750   4.93431   5.01951   5.02290
 Alpha virt. eigenvalues --    5.14132   5.14646   5.15226   5.16075   5.16924
 Alpha virt. eigenvalues --    5.19465   5.29755   5.30899   5.31510   5.41456
 Alpha virt. eigenvalues --    5.43824   5.47594   5.48295   5.51293   5.52466
 Alpha virt. eigenvalues --    5.60475   5.62420   5.64522   6.14084   6.14719
 Alpha virt. eigenvalues --    6.15121   6.24467   6.24569   6.80479   6.81145
 Alpha virt. eigenvalues --    6.85362   6.97444   7.65678   7.66509   7.67946
 Alpha virt. eigenvalues --    8.03115   8.04726   8.09240  10.29770  14.94527
 Alpha virt. eigenvalues --   52.29520
          Condensed to atoms (all electrons):
 Mulliken charges:
               1
     1  C    0.289351
     2  H   -0.154864
     3  H   -0.152838
     4  H   -0.371250
     5  H    0.388610
     6  C    0.003804
     7  H    0.001013
     8  H   -0.001414
     9  H   -0.001377
    10  H   -0.001035
 Sum of Mulliken charges =  -0.00000
 Mulliken charges with hydrogens summed into heavy atoms:
               1
     1  C   -0.000991
     6  C    0.000991
 Electronic spatial extent (au):  <R**2>=             35.5797
 Charge=              0.0000 electrons
 Dipole moment (field-independent basis, Debye):
    X=              0.0000    Y=              0.0000    Z=             -0.0004  Tot=              0.0004

 Test job not archived.
 1\1\GINC-CHIMERA-NODE14\SP\RM05\Gen\C2H8\CONNORNM\08-Dec-2018\0\\#T M0
 5/Gen test Massage SCF=(tight,maxcyc=40)\\M05 opt\\0,1\C,0,0.,0.,0.\H,
 0,1.10575427,0.,-0.05738864\H,0,-0.3758272,1.03452391,-0.12041661\H,0,
 -0.41139949,-0.63827512,-0.80581715\H,0,-0.31852758,-0.39624879,0.9836
 2241\C,0,0.,0.,4.47644019\H,0,0.37650129,0.681668,5.26356246\H,0,0.453
 78614,0.27275457,3.50398503\H,0,0.27125423,-1.04294992,4.73072856\H,0,
 -1.10154165,0.08852734,4.40748472\\Version=AS64L-G09RevD.01\HF=-45.950
 8287\RMSD=3.988e-09\Dipole=0.000019,0.0000081,-0.0001657\Quadrupole=-0
 .0002656,0.0001439,0.0001217,0.0008154,0.0003835,0.0005559\PG=C01 [X(C
 2H8)]\\@


 Discoveries are often made by not following instructions,
 by going off the main road, by trying the untried.
 -- Frank Tyger
 Job cpu time:       0 days  0 hours 14 minutes 39.5 seconds.
 File lengths (MBytes):  RWF=     41 Int=      0 D2E=      0 Chk=      4 Scr=      1
 Normal termination of Gaussian 09 at Sat Dec  8 15:17:16 2018.
