 Entering Gaussian System, Link 0=/data/szalewicgrp/connornm/opt/Gaussian/g09-M05-par/g09/g09
 AtFile(1): aug-cc-pVTZ.gbs
 Initial command:
 /data/szalewicgrp/connornm/opt/Gaussian/g09-M05-par/g09/l1.exe "/scratch/local/Gau-12868.inp" -scrdir="/scratch/local/"
 Entering Link 1 = /data/szalewicgrp/connornm/opt/Gaussian/g09-M05-par/g09/l1.exe PID=     12869.
  
 Copyright (c) 1988,1990,1992,1993,1995,1998,2003,2009,2013,
            Gaussian, Inc.  All Rights Reserved.
  
 This is part of the Gaussian(R) 09 program.  It is based on
 the Gaussian(R) 03 system (copyright 2003, Gaussian, Inc.),
 the Gaussian(R) 98 system (copyright 1998, Gaussian, Inc.),
 the Gaussian(R) 94 system (copyright 1995, Gaussian, Inc.),
 the Gaussian 92(TM) system (copyright 1992, Gaussian, Inc.),
 the Gaussian 90(TM) system (copyright 1990, Gaussian, Inc.),
 the Gaussian 88(TM) system (copyright 1988, Gaussian, Inc.),
 the Gaussian 86(TM) system (copyright 1986, Carnegie Mellon
 University), and the Gaussian 82(TM) system (copyright 1983,
 Carnegie Mellon University). Gaussian is a federally registered
 trademark of Gaussian, Inc.
  
 This software contains proprietary and confidential information,
 including trade secrets, belonging to Gaussian, Inc.
  
 This software is provided under written license and may be
 used, copied, transmitted, or stored only in accord with that
 written license.
  
 The following legend is applicable only to US Government
 contracts under FAR:
  
                    RESTRICTED RIGHTS LEGEND
  
 Use, reproduction and disclosure by the US Government is
 subject to restrictions as set forth in subparagraphs (a)
 and (c) of the Commercial Computer Software - Restricted
 Rights clause in FAR 52.227-19.
  
 Gaussian, Inc.
 340 Quinnipiac St., Bldg. 40, Wallingford CT 06492
  
  
 ---------------------------------------------------------------
 Warning -- This program may not be used in any manner that
 competes with the business of Gaussian, Inc. or will provide
 assistance to any competitor of Gaussian, Inc.  The licensee
 of this program is prohibited from giving any competitor of
 Gaussian, Inc. access to this program.  By using this program,
 the user acknowledges that Gaussian, Inc. is engaged in the
 business of creating and licensing software in the field of
 computational chemistry and represents and warrants to the
 licensee that it is not a competitor of Gaussian, Inc. and that
 it will not use this program in any manner prohibited above.
 ---------------------------------------------------------------
  

 Cite this work as:
 Gaussian 09, Revision D.01,
 M. J. Frisch, G. W. Trucks, H. B. Schlegel, G. E. Scuseria, 
 M. A. Robb, J. R. Cheeseman, G. Scalmani, V. Barone, B. Mennucci, 
 G. A. Petersson, H. Nakatsuji, M. Caricato, X. Li, H. P. Hratchian, 
 A. F. Izmaylov, J. Bloino, G. Zheng, J. L. Sonnenberg, M. Hada, 
 M. Ehara, K. Toyota, R. Fukuda, J. Hasegawa, M. Ishida, T. Nakajima, 
 Y. Honda, O. Kitao, H. Nakai, T. Vreven, J. A. Montgomery, Jr., 
 J. E. Peralta, F. Ogliaro, M. Bearpark, J. J. Heyd, E. Brothers, 
 K. N. Kudin, V. N. Staroverov, T. Keith, R. Kobayashi, J. Normand, 
 K. Raghavachari, A. Rendell, J. C. Burant, S. S. Iyengar, J. Tomasi, 
 M. Cossi, N. Rega, J. M. Millam, M. Klene, J. E. Knox, J. B. Cross, 
 V. Bakken, C. Adamo, J. Jaramillo, R. Gomperts, R. E. Stratmann, 
 O. Yazyev, A. J. Austin, R. Cammi, C. Pomelli, J. W. Ochterski, 
 R. L. Martin, K. Morokuma, V. G. Zakrzewski, G. A. Voth, 
 P. Salvador, J. J. Dannenberg, S. Dapprich, A. D. Daniels, 
 O. Farkas, J. B. Foresman, J. V. Ortiz, J. Cioslowski, 
 and D. J. Fox, Gaussian, Inc., Wallingford CT, 2013.
 
 ******************************************
 Gaussian 09:  AS64L-G09RevD.01 24-Apr-2013
                 8-Dec-2018 
 ******************************************
 %Chk=CH400277
 %Mem=2GB
 %NProcShared=16
 Will use up to   16 processors via shared memory.
 ---------------------------------------------
 #T M05/Gen test Massage SCF=(tight,maxcyc=40)
 ---------------------------------------------
 -------
 M05 opt
 -------
 Symbolic Z-matrix:
 Charge =  0 Multiplicity = 1
 6                     0.        0.        0. 
 1                     1.09301   0.        0.17694 
 1                    -0.42703   0.96739   0.32831 
 1                    -0.19911  -0.14393  -1.07964 
 1                    -0.46687  -0.82346   0.57439 
 6-Bq                  0.        0.        4.72149 
 1-Bq                  0.18856  -0.14433   5.80297 
 1-Bq                  0.79141  -0.50881   4.13773 
 1-Bq                 -0.98627  -0.42896   4.45833 
 1-Bq                  0.0063    1.08209   4.48693 
 
                    Distance matrix (angstroms):
                    1          2          3          4          5
     1  C    0.000000
     2  H    1.107243   0.000000
     3  H    1.107242   1.808119   0.000000
     4  H    1.107243   1.808119   1.808119   0.000000
     5  H    1.107243   1.808119   1.808119   1.808119   0.000000
     6  C    4.721488   4.674142   4.518652   5.806330   4.253759
     7  H    5.807825   5.700095   5.620210   6.893520   5.313081
     8  H    4.243350   4.004711   4.263266   5.323084   3.792049
     9  H    4.586222   4.778883   4.395406   5.600892   3.938322
    10  H    4.615567   4.574695   4.182705   5.703682   4.377551
                    6          7          8          9         10
     6  C    0.000000
     7  H    1.107243   0.000000
     8  H    1.107243   1.808119   0.000000
     9  H    1.107242   1.808119   1.808119   0.000000
    10  H    1.107242   1.808119   1.808119   1.808119   0.000000
 Symmetry turned off by external request.
 This structure is nearly, but not quite of a higher symmetry.
 Consider Symm=Loose if the higher symmetry is desired.
 Framework group  C1[X(C2H8)]
 Deg. of freedom    24
 Rotational constants (GHZ):     76.6916055      2.7276759      2.7276759
   276 basis functions,   360 primitive gaussians,   310 cartesian basis functions
     5 alpha electrons        5 beta electrons
       nuclear repulsion energy        13.2261669765 Hartrees.
 IMHF & INEx in M05                  614413                  385587
 NAtoms=   10 NActive=   10 NUniq=   10 SFac= 1.00D+00 NAtFMM=   60 NAOKFM=F Big=F
 ExpMin= 2.53D-02 ExpMax= 8.24D+03 ExpMxC= 2.81D+02 IAcc=3 IRadAn=         5 AccDes= 0.00D+00
 Harris functional with IExCor= 1009 and IRadAn=       5 diagonalized for initial guess.
 HarFok:  IExCor= 1009 AccDes= 0.00D+00 IRadAn=         5 IDoV= 1 UseB2=F ITyADJ=14
 ICtDFT=  3500011 ScaDFX=  1.000000  1.000000  1.000000  1.000000
 FoFCou: FMM=F IPFlag=           0 FMFlag=      100000 FMFlg1=           0
         NFxFlg=           0 DoJE=T BraDBF=F KetDBF=T FulRan=T
         wScrn=  0.000000 ICntrl=     500 IOpCl=  0 I1Cent=   200000004 NGrid=           0
         NMat0=    1 NMatS0=      1 NMatT0=    0 NMatD0=    1 NMtDS0=    0 NMtDT0=    0
 Symmetry not used in FoFCou.
 SCF Done:  E(RM05) =  -45.8795931878     A.U. after   10 cycles
            NFock= 10  Conv=0.29D-08     -V/T= 2.0336

 **********************************************************************

            Population analysis using the SCF density.

 **********************************************************************

 Alpha  occ. eigenvalues --  -12.05203  -0.99429  -0.71140  -0.71140  -0.71138
 Alpha virt. eigenvalues --   -0.08970  -0.01743  -0.01735  -0.01732  -0.00543
 Alpha virt. eigenvalues --   -0.00258  -0.00254   0.02964   0.03814   0.04338
 Alpha virt. eigenvalues --    0.05174   0.06137   0.06536   0.06945   0.07891
 Alpha virt. eigenvalues --    0.08335   0.08700   0.10498   0.11242   0.11661
 Alpha virt. eigenvalues --    0.14622   0.17454   0.18798   0.18880   0.19557
 Alpha virt. eigenvalues --    0.20241   0.20699   0.21148   0.22054   0.22939
 Alpha virt. eigenvalues --    0.24264   0.24755   0.25021   0.25310   0.25439
 Alpha virt. eigenvalues --    0.25957   0.27109   0.27408   0.28217   0.29487
 Alpha virt. eigenvalues --    0.30353   0.30662   0.31606   0.35015   0.35192
 Alpha virt. eigenvalues --    0.35411   0.36130   0.37456   0.38191   0.39736
 Alpha virt. eigenvalues --    0.40263   0.40708   0.43395   0.44744   0.45957
 Alpha virt. eigenvalues --    0.46465   0.47464   0.48250   0.49751   0.51466
 Alpha virt. eigenvalues --    0.55545   0.55987   0.56766   0.57367   0.57666
 Alpha virt. eigenvalues --    0.63088   0.63637   0.65402   0.65533   0.66053
 Alpha virt. eigenvalues --    0.66737   0.68405   0.70589   0.70990   0.71669
 Alpha virt. eigenvalues --    0.72190   0.72336   0.73308   0.77098   0.77305
 Alpha virt. eigenvalues --    0.78270   0.79106   0.82420   0.83536   0.86234
 Alpha virt. eigenvalues --    0.87139   0.90024   0.91499   0.92217   0.93472
 Alpha virt. eigenvalues --    0.93984   0.94538   0.95776   0.96288   0.97515
 Alpha virt. eigenvalues --    0.99185   1.00940   1.01801   1.03789   1.04449
 Alpha virt. eigenvalues --    1.04739   1.06005   1.06552   1.07709   1.08457
 Alpha virt. eigenvalues --    1.10279   1.11519   1.13270   1.14710   1.15421
 Alpha virt. eigenvalues --    1.16060   1.21035   1.22404   1.22655   1.23821
 Alpha virt. eigenvalues --    1.24353   1.25159   1.26122   1.26611   1.28028
 Alpha virt. eigenvalues --    1.29069   1.29413   1.33379   1.34095   1.36795
 Alpha virt. eigenvalues --    1.37784   1.38276   1.38933   1.41234   1.41911
 Alpha virt. eigenvalues --    1.42823   1.46991   1.47083   1.48332   1.51990
 Alpha virt. eigenvalues --    1.55002   1.56828   1.58546   1.69876   1.70303
 Alpha virt. eigenvalues --    1.70532   1.72659   1.72954   1.75574   1.83853
 Alpha virt. eigenvalues --    1.84456   1.85476   1.88703   1.89146   1.93497
 Alpha virt. eigenvalues --    2.01820   2.02005   2.04505   2.05563   2.06024
 Alpha virt. eigenvalues --    2.07660   2.10820   2.24855   2.26885   2.27815
 Alpha virt. eigenvalues --    2.31019   2.44740   2.45416   2.47096   2.47568
 Alpha virt. eigenvalues --    2.50714   2.68261   2.68701   2.71311   2.82735
 Alpha virt. eigenvalues --    2.96628   2.96890   2.98544   2.98769   3.02911
 Alpha virt. eigenvalues --    3.03828   3.04928   3.05708   3.21679   3.21834
 Alpha virt. eigenvalues --    3.22245   3.44018   3.44248   3.44491   3.46551
 Alpha virt. eigenvalues --    3.47012   3.47616   3.48044   3.54499   3.54911
 Alpha virt. eigenvalues --    3.66353   3.89667   3.89784   3.92223   3.99640
 Alpha virt. eigenvalues --    3.99886   4.00118   4.02304   4.02496   4.03050
 Alpha virt. eigenvalues --    4.03231   4.03720   4.03815   4.03930   4.04961
 Alpha virt. eigenvalues --    4.16250   4.16769   4.17508   4.17940   4.18114
 Alpha virt. eigenvalues --    4.27313   4.36439   4.36763   4.37485   4.43381
 Alpha virt. eigenvalues --    4.44045   4.46157   4.46456   4.46504   4.49626
 Alpha virt. eigenvalues --    4.53624   4.54394   4.60237   4.60458   4.61642
 Alpha virt. eigenvalues --    4.75904   4.81176   4.88629   4.89250   4.89561
 Alpha virt. eigenvalues --    4.92399   4.92560   4.95327   5.02363   5.02379
 Alpha virt. eigenvalues --    5.14908   5.15328   5.16314   5.16442   5.16769
 Alpha virt. eigenvalues --    5.17231   5.30268   5.30437   5.31149   5.41957
 Alpha virt. eigenvalues --    5.42252   5.48152   5.48499   5.49450   5.52273
 Alpha virt. eigenvalues --    5.60740   5.61085   5.64833   6.14208   6.15026
 Alpha virt. eigenvalues --    6.15682   6.25207   6.25238   6.80782   6.81501
 Alpha virt. eigenvalues --    6.82622   6.96795   7.66444   7.66635   7.68797
 Alpha virt. eigenvalues --    8.03868   8.04634   8.09268  10.27756  14.89954
 Alpha virt. eigenvalues --   52.21916
          Condensed to atoms (all electrons):
 Mulliken charges:
               1
     1  C    0.441918
     2  H   -0.061146
     3  H   -0.062770
     4  H   -0.269817
     5  H   -0.044945
     6  C   -0.002019
     7  H    0.000166
     8  H   -0.001126
     9  H   -0.000418
    10  H    0.000157
 Sum of Mulliken charges =  -0.00000
 Mulliken charges with hydrogens summed into heavy atoms:
               1
     1  C    0.003240
     6  C   -0.003240
 Electronic spatial extent (au):  <R**2>=             35.5901
 Charge=             -0.0000 electrons
 Dipole moment (field-independent basis, Debye):
    X=              0.0001    Y=              0.0001    Z=              0.0002  Tot=              0.0002

 Test job not archived.
 1\1\GINC-CHIMERA-NODE56\SP\RM05\Gen\C2H8\CONNORNM\08-Dec-2018\0\\#T M0
 5/Gen test Massage SCF=(tight,maxcyc=40)\\M05 opt\\0,1\C,0,0.,0.,0.\H,
 0,1.09301344,0.,0.17693948\H,0,-0.42703315,0.96738887,0.32830994\H,0,-
 0.19911076,-0.14392532,-1.07964178\H,0,-0.46686953,-0.82346355,0.57439
 236\C,0,0.,0.,4.72148828\H,0,0.18855967,-0.14432677,5.80296921\H,0,0.7
 9140632,-0.50880986,4.13772932\H,0,-0.98627049,-0.42895684,4.45832959\
 H,0,0.00630451,1.08209347,4.48692501\\Version=AS64L-G09RevD.01\HF=-45.
 8795932\RMSD=2.945e-09\Dipole=0.0000312,0.0000313,0.0000673\Quadrupole
 =-0.0000533,-0.0000951,0.0001484,0.0000154,0.0002849,0.0000873\PG=C01 
 [X(C2H8)]\\@


 SIGN SEEN IN A RESTAURANT-
 WE RESERVE THE RIGHT TO SERVE REFUSE TO ANYONE.
 Job cpu time:       0 days  0 hours 14 minutes  6.3 seconds.
 File lengths (MBytes):  RWF=     41 Int=      0 D2E=      0 Chk=      4 Scr=      1
 Normal termination of Gaussian 09 at Sat Dec  8 13:35:33 2018.
