 Entering Gaussian System, Link 0=/data/szalewicgrp/connornm/opt/Gaussian/g09-M05-par/g09/g09
 AtFile(1): aug-cc-pVTZ.gbs
 Initial command:
 /data/szalewicgrp/connornm/opt/Gaussian/g09-M05-par/g09/l1.exe "/scratch/local/Gau-7395.inp" -scrdir="/scratch/local/"
 Entering Link 1 = /data/szalewicgrp/connornm/opt/Gaussian/g09-M05-par/g09/l1.exe PID=      7396.
  
 Copyright (c) 1988,1990,1992,1993,1995,1998,2003,2009,2013,
            Gaussian, Inc.  All Rights Reserved.
  
 This is part of the Gaussian(R) 09 program.  It is based on
 the Gaussian(R) 03 system (copyright 2003, Gaussian, Inc.),
 the Gaussian(R) 98 system (copyright 1998, Gaussian, Inc.),
 the Gaussian(R) 94 system (copyright 1995, Gaussian, Inc.),
 the Gaussian 92(TM) system (copyright 1992, Gaussian, Inc.),
 the Gaussian 90(TM) system (copyright 1990, Gaussian, Inc.),
 the Gaussian 88(TM) system (copyright 1988, Gaussian, Inc.),
 the Gaussian 86(TM) system (copyright 1986, Carnegie Mellon
 University), and the Gaussian 82(TM) system (copyright 1983,
 Carnegie Mellon University). Gaussian is a federally registered
 trademark of Gaussian, Inc.
  
 This software contains proprietary and confidential information,
 including trade secrets, belonging to Gaussian, Inc.
  
 This software is provided under written license and may be
 used, copied, transmitted, or stored only in accord with that
 written license.
  
 The following legend is applicable only to US Government
 contracts under FAR:
  
                    RESTRICTED RIGHTS LEGEND
  
 Use, reproduction and disclosure by the US Government is
 subject to restrictions as set forth in subparagraphs (a)
 and (c) of the Commercial Computer Software - Restricted
 Rights clause in FAR 52.227-19.
  
 Gaussian, Inc.
 340 Quinnipiac St., Bldg. 40, Wallingford CT 06492
  
  
 ---------------------------------------------------------------
 Warning -- This program may not be used in any manner that
 competes with the business of Gaussian, Inc. or will provide
 assistance to any competitor of Gaussian, Inc.  The licensee
 of this program is prohibited from giving any competitor of
 Gaussian, Inc. access to this program.  By using this program,
 the user acknowledges that Gaussian, Inc. is engaged in the
 business of creating and licensing software in the field of
 computational chemistry and represents and warrants to the
 licensee that it is not a competitor of Gaussian, Inc. and that
 it will not use this program in any manner prohibited above.
 ---------------------------------------------------------------
  

 Cite this work as:
 Gaussian 09, Revision D.01,
 M. J. Frisch, G. W. Trucks, H. B. Schlegel, G. E. Scuseria, 
 M. A. Robb, J. R. Cheeseman, G. Scalmani, V. Barone, B. Mennucci, 
 G. A. Petersson, H. Nakatsuji, M. Caricato, X. Li, H. P. Hratchian, 
 A. F. Izmaylov, J. Bloino, G. Zheng, J. L. Sonnenberg, M. Hada, 
 M. Ehara, K. Toyota, R. Fukuda, J. Hasegawa, M. Ishida, T. Nakajima, 
 Y. Honda, O. Kitao, H. Nakai, T. Vreven, J. A. Montgomery, Jr., 
 J. E. Peralta, F. Ogliaro, M. Bearpark, J. J. Heyd, E. Brothers, 
 K. N. Kudin, V. N. Staroverov, T. Keith, R. Kobayashi, J. Normand, 
 K. Raghavachari, A. Rendell, J. C. Burant, S. S. Iyengar, J. Tomasi, 
 M. Cossi, N. Rega, J. M. Millam, M. Klene, J. E. Knox, J. B. Cross, 
 V. Bakken, C. Adamo, J. Jaramillo, R. Gomperts, R. E. Stratmann, 
 O. Yazyev, A. J. Austin, R. Cammi, C. Pomelli, J. W. Ochterski, 
 R. L. Martin, K. Morokuma, V. G. Zakrzewski, G. A. Voth, 
 P. Salvador, J. J. Dannenberg, S. Dapprich, A. D. Daniels, 
 O. Farkas, J. B. Foresman, J. V. Ortiz, J. Cioslowski, 
 and D. J. Fox, Gaussian, Inc., Wallingford CT, 2013.
 
 ******************************************
 Gaussian 09:  AS64L-G09RevD.01 24-Apr-2013
                 8-Dec-2018 
 ******************************************
 %Chk=CH400207
 %Mem=2GB
 %NProcShared=16
 Will use up to   16 processors via shared memory.
 ---------------------------------------------
 #T M05/Gen test Massage SCF=(tight,maxcyc=40)
 ---------------------------------------------
 -------
 M05 opt
 -------
 Symbolic Z-matrix:
 Charge =  0 Multiplicity = 1
 6                     0.        0.        0. 
 1                     0.89235   0.        0.65551 
 1                     0.30915  -0.19979  -1.04427 
 1                    -0.70318  -0.78745   0.33382 
 1                    -0.49831   0.98724   0.05493 
 6-Bq                  0.        0.        3.03964 
 1-Bq                  0.3176    0.91146   2.49709 
 1-Bq                  0.74292  -0.23985   3.82482 
 1-Bq                 -0.98824   0.17451   3.50752 
 1-Bq                 -0.07229  -0.84611   2.32911 
 
                    Distance matrix (angstroms):
                    1          2          3          4          5
     1  C    0.000000
     2  H    1.107243   0.000000
     3  H    1.107242   1.808119   0.000000
     4  H    1.107243   1.808119   1.808119   0.000000
     5  H    1.107243   1.808119   1.808119   1.808119   0.000000
     6  C    3.039636   2.545652   4.100459   2.904472   3.182989
     7  H    2.677141   2.133661   3.711627   2.933942   2.575964
     8  H    3.903684   3.181887   4.888541   3.818137   4.154337
     9  H    3.648258   3.420679   4.747853   3.328509   3.580635
    10  H    2.479087   2.108876   3.455847   2.093471   2.952044
                    6          7          8          9         10
     6  C    0.000000
     7  H    1.107243   0.000000
     8  H    1.107243   1.808119   0.000000
     9  H    1.107242   1.808119   1.808119   0.000000
    10  H    1.107243   1.808119   1.808119   1.808119   0.000000
 Symmetry turned off by external request.
 This structure is nearly, but not quite of a higher symmetry.
 Consider Symm=Loose if the higher symmetry is desired.
 Framework group  C1[X(C2H8)]
 Deg. of freedom    24
 Rotational constants (GHZ):     76.6916052      6.2663673      6.2663673
   276 basis functions,   360 primitive gaussians,   310 cartesian basis functions
     5 alpha electrons        5 beta electrons
       nuclear repulsion energy        13.2261669760 Hartrees.
 IMHF & INEx in M05                  614413                  385587
 NAtoms=   10 NActive=   10 NUniq=   10 SFac= 1.00D+00 NAtFMM=   60 NAOKFM=F Big=F
 ExpMin= 2.53D-02 ExpMax= 8.24D+03 ExpMxC= 2.81D+02 IAcc=3 IRadAn=         5 AccDes= 0.00D+00
 Harris functional with IExCor= 1009 and IRadAn=       5 diagonalized for initial guess.
 HarFok:  IExCor= 1009 AccDes= 0.00D+00 IRadAn=         5 IDoV= 1 UseB2=F ITyADJ=14
 ICtDFT=  3500011 ScaDFX=  1.000000  1.000000  1.000000  1.000000
 FoFCou: FMM=F IPFlag=           0 FMFlag=      100000 FMFlg1=           0
         NFxFlg=           0 DoJE=T BraDBF=F KetDBF=T FulRan=T
         wScrn=  0.000000 ICntrl=     500 IOpCl=  0 I1Cent=   200000004 NGrid=           0
         NMat0=    1 NMatS0=      1 NMatT0=    0 NMatD0=    1 NMtDS0=    0 NMtDT0=    0
 Symmetry not used in FoFCou.
 SCF Done:  E(RM05) =  -45.8802946978     A.U. after   10 cycles
            NFock= 10  Conv=0.65D-08     -V/T= 2.0333

 **********************************************************************

            Population analysis using the SCF density.

 **********************************************************************

 Alpha  occ. eigenvalues --  -12.05216  -0.99440  -0.71151  -0.71148  -0.71146
 Alpha virt. eigenvalues --   -0.08956  -0.01737  -0.01729  -0.01723  -0.00567
 Alpha virt. eigenvalues --   -0.00367  -0.00307   0.03372   0.03609   0.04119
 Alpha virt. eigenvalues --    0.05243   0.05896   0.06787   0.07170   0.08009
 Alpha virt. eigenvalues --    0.09191   0.09459   0.11052   0.11800   0.13475
 Alpha virt. eigenvalues --    0.14640   0.17461   0.18730   0.19446   0.20081
 Alpha virt. eigenvalues --    0.20164   0.21291   0.21591   0.22698   0.23154
 Alpha virt. eigenvalues --    0.24655   0.24919   0.25693   0.26236   0.27451
 Alpha virt. eigenvalues --    0.27867   0.28470   0.29521   0.30905   0.31619
 Alpha virt. eigenvalues --    0.33192   0.34978   0.35001   0.35485   0.36960
 Alpha virt. eigenvalues --    0.38465   0.39908   0.40319   0.40580   0.41360
 Alpha virt. eigenvalues --    0.42899   0.44060   0.45168   0.46097   0.46560
 Alpha virt. eigenvalues --    0.51575   0.52250   0.53625   0.54106   0.55569
 Alpha virt. eigenvalues --    0.55658   0.56038   0.57448   0.58154   0.60106
 Alpha virt. eigenvalues --    0.60716   0.61814   0.63333   0.63907   0.65571
 Alpha virt. eigenvalues --    0.67437   0.69541   0.70166   0.72371   0.72979
 Alpha virt. eigenvalues --    0.74939   0.75974   0.78612   0.80025   0.80439
 Alpha virt. eigenvalues --    0.82646   0.83735   0.85593   0.87291   0.88463
 Alpha virt. eigenvalues --    0.90044   0.91349   0.92516   0.93240   0.94633
 Alpha virt. eigenvalues --    0.94712   0.97021   0.98718   0.99546   1.01168
 Alpha virt. eigenvalues --    1.02452   1.03417   1.04618   1.05484   1.06296
 Alpha virt. eigenvalues --    1.08796   1.09912   1.13405   1.14122   1.15297
 Alpha virt. eigenvalues --    1.16304   1.16881   1.18395   1.21876   1.24040
 Alpha virt. eigenvalues --    1.24618   1.25576   1.26661   1.27406   1.28081
 Alpha virt. eigenvalues --    1.30616   1.31109   1.32837   1.33608   1.35075
 Alpha virt. eigenvalues --    1.35775   1.38010   1.40179   1.40817   1.42572
 Alpha virt. eigenvalues --    1.43740   1.44887   1.46562   1.48067   1.48477
 Alpha virt. eigenvalues --    1.50609   1.54562   1.56019   1.59828   1.62936
 Alpha virt. eigenvalues --    1.65804   1.69369   1.71180   1.73147   1.75694
 Alpha virt. eigenvalues --    1.77816   1.79950   1.81343   1.83209   1.85683
 Alpha virt. eigenvalues --    1.86234   1.89629   1.91830   1.92780   1.95962
 Alpha virt. eigenvalues --    1.98558   2.01694   2.03891   2.04441   2.08722
 Alpha virt. eigenvalues --    2.14536   2.19843   2.27179   2.30049   2.31900
 Alpha virt. eigenvalues --    2.42875   2.44857   2.53995   2.55805   2.58025
 Alpha virt. eigenvalues --    2.61472   2.65505   2.66613   2.68850   2.79574
 Alpha virt. eigenvalues --    3.01325   3.03002   3.06028   3.10143   3.11135
 Alpha virt. eigenvalues --    3.12543   3.15133   3.18935   3.23803   3.24684
 Alpha virt. eigenvalues --    3.29786   3.46548   3.47730   3.48714   3.50793
 Alpha virt. eigenvalues --    3.55012   3.56403   3.59201   3.61259   3.64138
 Alpha virt. eigenvalues --    3.69094   3.91393   3.91995   3.93196   3.94453
 Alpha virt. eigenvalues --    3.96647   3.99493   4.01637   4.04716   4.05314
 Alpha virt. eigenvalues --    4.06730   4.07857   4.09936   4.12708   4.18039
 Alpha virt. eigenvalues --    4.20663   4.23038   4.23915   4.29218   4.29897
 Alpha virt. eigenvalues --    4.33369   4.33787   4.36037   4.39289   4.45454
 Alpha virt. eigenvalues --    4.47686   4.49773   4.50020   4.51159   4.53671
 Alpha virt. eigenvalues --    4.54192   4.57028   4.59786   4.67361   4.75846
 Alpha virt. eigenvalues --    4.81780   4.83811   4.87429   4.89478   4.90509
 Alpha virt. eigenvalues --    4.91142   4.93950   4.97029   5.03209   5.05179
 Alpha virt. eigenvalues --    5.09484   5.14770   5.17345   5.19290   5.20949
 Alpha virt. eigenvalues --    5.23198   5.26484   5.27919   5.31269   5.37311
 Alpha virt. eigenvalues --    5.45132   5.45368   5.47769   5.50510   5.53158
 Alpha virt. eigenvalues --    5.65313   5.67433   5.76442   6.09154   6.12190
 Alpha virt. eigenvalues --    6.15436   6.19099   6.19400   6.79373   6.80548
 Alpha virt. eigenvalues --    6.84431   6.97167   7.58278   7.65845   7.67400
 Alpha virt. eigenvalues --    8.05220   8.06463   8.14708  10.27636  15.25075
 Alpha virt. eigenvalues --   52.54369
          Condensed to atoms (all electrons):
 Mulliken charges:
               1
     1  C    0.219498
     2  H    0.089697
     3  H   -0.519361
     4  H    0.023721
     5  H    0.012872
     6  C    0.011313
     7  H    0.038182
     8  H    0.010323
     9  H   -0.003928
    10  H    0.117682
 Sum of Mulliken charges =  -0.00000
 Mulliken charges with hydrogens summed into heavy atoms:
               1
     1  C   -0.173573
     6  C    0.173573
 Electronic spatial extent (au):  <R**2>=             35.5908
 Charge=             -0.0000 electrons
 Dipole moment (field-independent basis, Debye):
    X=             -0.0005    Y=              0.0002    Z=              0.0010  Tot=              0.0012

 Test job not archived.
 1\1\GINC-CHIMERA-NODE41\SP\RM05\Gen\C2H8\CONNORNM\08-Dec-2018\0\\#T M0
 5/Gen test Massage SCF=(tight,maxcyc=40)\\M05 opt\\0,1\C,0,0.,0.,0.\H,
 0,0.89235169,0.,0.65551081\H,0,0.30914645,-0.19979379,-1.04426858\H,0,
 -0.70318439,-0.78745073,0.33382484\H,0,-0.49831375,0.98724452,0.054932
 93\C,0,0.,0.,3.03963578\H,0,0.3176019,0.91145958,2.49708953\H,0,0.7429
 2391,-0.23985137,3.82482451\H,0,-0.98823864,0.17450556,3.50752268\H,0,
 -0.07228717,-0.84611377,2.32910638\\Version=AS64L-G09RevD.01\HF=-45.88
 02947\RMSD=6.497e-09\Dipole=-0.0002014,0.000064,0.0004098\Quadrupole=-
 0.0018941,-0.0006973,0.0025914,-0.0001394,-0.0008819,-0.0000683\PG=C01
  [X(C2H8)]\\@


 GETTING A SIMPLE ANSWER FROM A PROFESSOR IS LIKE
 GETTING A THIMBLE OF WATER FROM A FIRE HYDRANT.
     -- PROF. LEN SHAPIRO, NDSU
 Job cpu time:       0 days  0 hours 18 minutes 11.2 seconds.
 File lengths (MBytes):  RWF=     41 Int=      0 D2E=      0 Chk=      4 Scr=      1
 Normal termination of Gaussian 09 at Sat Dec  8 13:23:40 2018.
