 Entering Gaussian System, Link 0=/data/szalewicgrp/connornm/opt/Gaussian/g09-M05-par/g09/g09
 AtFile(1): aug-cc-pVTZ.gbs
 Initial command:
 /data/szalewicgrp/connornm/opt/Gaussian/g09-M05-par/g09/l1.exe "/scratch/local/Gau-31945.inp" -scrdir="/scratch/local/"
 Entering Link 1 = /data/szalewicgrp/connornm/opt/Gaussian/g09-M05-par/g09/l1.exe PID=     31946.
  
 Copyright (c) 1988,1990,1992,1993,1995,1998,2003,2009,2013,
            Gaussian, Inc.  All Rights Reserved.
  
 This is part of the Gaussian(R) 09 program.  It is based on
 the Gaussian(R) 03 system (copyright 2003, Gaussian, Inc.),
 the Gaussian(R) 98 system (copyright 1998, Gaussian, Inc.),
 the Gaussian(R) 94 system (copyright 1995, Gaussian, Inc.),
 the Gaussian 92(TM) system (copyright 1992, Gaussian, Inc.),
 the Gaussian 90(TM) system (copyright 1990, Gaussian, Inc.),
 the Gaussian 88(TM) system (copyright 1988, Gaussian, Inc.),
 the Gaussian 86(TM) system (copyright 1986, Carnegie Mellon
 University), and the Gaussian 82(TM) system (copyright 1983,
 Carnegie Mellon University). Gaussian is a federally registered
 trademark of Gaussian, Inc.
  
 This software contains proprietary and confidential information,
 including trade secrets, belonging to Gaussian, Inc.
  
 This software is provided under written license and may be
 used, copied, transmitted, or stored only in accord with that
 written license.
  
 The following legend is applicable only to US Government
 contracts under FAR:
  
                    RESTRICTED RIGHTS LEGEND
  
 Use, reproduction and disclosure by the US Government is
 subject to restrictions as set forth in subparagraphs (a)
 and (c) of the Commercial Computer Software - Restricted
 Rights clause in FAR 52.227-19.
  
 Gaussian, Inc.
 340 Quinnipiac St., Bldg. 40, Wallingford CT 06492
  
  
 ---------------------------------------------------------------
 Warning -- This program may not be used in any manner that
 competes with the business of Gaussian, Inc. or will provide
 assistance to any competitor of Gaussian, Inc.  The licensee
 of this program is prohibited from giving any competitor of
 Gaussian, Inc. access to this program.  By using this program,
 the user acknowledges that Gaussian, Inc. is engaged in the
 business of creating and licensing software in the field of
 computational chemistry and represents and warrants to the
 licensee that it is not a competitor of Gaussian, Inc. and that
 it will not use this program in any manner prohibited above.
 ---------------------------------------------------------------
  

 Cite this work as:
 Gaussian 09, Revision D.01,
 M. J. Frisch, G. W. Trucks, H. B. Schlegel, G. E. Scuseria, 
 M. A. Robb, J. R. Cheeseman, G. Scalmani, V. Barone, B. Mennucci, 
 G. A. Petersson, H. Nakatsuji, M. Caricato, X. Li, H. P. Hratchian, 
 A. F. Izmaylov, J. Bloino, G. Zheng, J. L. Sonnenberg, M. Hada, 
 M. Ehara, K. Toyota, R. Fukuda, J. Hasegawa, M. Ishida, T. Nakajima, 
 Y. Honda, O. Kitao, H. Nakai, T. Vreven, J. A. Montgomery, Jr., 
 J. E. Peralta, F. Ogliaro, M. Bearpark, J. J. Heyd, E. Brothers, 
 K. N. Kudin, V. N. Staroverov, T. Keith, R. Kobayashi, J. Normand, 
 K. Raghavachari, A. Rendell, J. C. Burant, S. S. Iyengar, J. Tomasi, 
 M. Cossi, N. Rega, J. M. Millam, M. Klene, J. E. Knox, J. B. Cross, 
 V. Bakken, C. Adamo, J. Jaramillo, R. Gomperts, R. E. Stratmann, 
 O. Yazyev, A. J. Austin, R. Cammi, C. Pomelli, J. W. Ochterski, 
 R. L. Martin, K. Morokuma, V. G. Zakrzewski, G. A. Voth, 
 P. Salvador, J. J. Dannenberg, S. Dapprich, A. D. Daniels, 
 O. Farkas, J. B. Foresman, J. V. Ortiz, J. Cioslowski, 
 and D. J. Fox, Gaussian, Inc., Wallingford CT, 2013.
 
 ******************************************
 Gaussian 09:  AS64L-G09RevD.01 24-Apr-2013
                 7-Dec-2018 
 ******************************************
 %Chk=CH400174
 %Mem=2GB
 %NProcShared=16
 Will use up to   16 processors via shared memory.
 ---------------------------------------------
 #T M05/Gen test Massage SCF=(tight,maxcyc=40)
 ---------------------------------------------
 -------
 M05 opt
 -------
 Symbolic Z-matrix:
 Charge =  0 Multiplicity = 1
 6                     0.        0.        0. 
 1                     0.93652   0.        0.59069 
 1                    -0.70195  -0.74562   0.42108 
 1                    -0.46177   1.00555   0.04028 
 1                     0.22719  -0.25994  -1.05205 
 6-Bq                  0.        0.        3.56054 
 1-Bq                  0.02702  -0.97807   3.04223 
 1-Bq                  1.02651   0.4091    3.63053 
 1-Bq                 -0.63907   0.7021    2.99078 
 1-Bq                 -0.41446  -0.13313   4.57862 
 
                    Distance matrix (angstroms):
                    1          2          3          4          5
     1  C    0.000000
     2  H    1.107243   0.000000
     3  H    1.107242   1.808119   0.000000
     4  H    1.107242   1.808119   1.808119   0.000000
     5  H    1.107243   1.808119   1.808119   1.808119   0.000000
     6  C    3.560538   3.114016   3.302250   3.690067   4.625487
     7  H    3.195703   2.791752   2.730541   3.631168   4.161599
     8  H    3.794971   3.068564   3.823803   3.931997   4.797189
     9  H    3.137853   2.955655   2.950116   2.971359   4.245042
    10  H    4.599264   4.212656   4.212229   4.679248   5.668525
                    6          7          8          9         10
     6  C    0.000000
     7  H    1.107242   0.000000
     8  H    1.107242   1.808119   0.000000
     9  H    1.107242   1.808119   1.808119   0.000000
    10  H    1.107243   1.808119   1.808119   1.808119   0.000000
 Symmetry turned off by external request.
 This structure is nearly, but not quite of a higher symmetry.
 Consider Symm=Loose if the higher symmetry is desired.
 Framework group  C1[X(C2H8)]
 Deg. of freedom    24
 Rotational constants (GHZ):     76.6916056      4.6704561      4.6704561
   276 basis functions,   360 primitive gaussians,   310 cartesian basis functions
     5 alpha electrons        5 beta electrons
       nuclear repulsion energy        13.2261669890 Hartrees.
 IMHF & INEx in M05                  614413                  385587
 NAtoms=   10 NActive=   10 NUniq=   10 SFac= 1.00D+00 NAtFMM=   60 NAOKFM=F Big=F
 ExpMin= 2.53D-02 ExpMax= 8.24D+03 ExpMxC= 2.81D+02 IAcc=3 IRadAn=         5 AccDes= 0.00D+00
 Harris functional with IExCor= 1009 and IRadAn=       5 diagonalized for initial guess.
 HarFok:  IExCor= 1009 AccDes= 0.00D+00 IRadAn=         5 IDoV= 1 UseB2=F ITyADJ=14
 ICtDFT=  3500011 ScaDFX=  1.000000  1.000000  1.000000  1.000000
 FoFCou: FMM=F IPFlag=           0 FMFlag=      100000 FMFlg1=           0
         NFxFlg=           0 DoJE=T BraDBF=F KetDBF=T FulRan=T
         wScrn=  0.000000 ICntrl=     500 IOpCl=  0 I1Cent=   200000004 NGrid=           0
         NMat0=    1 NMatS0=      1 NMatT0=    0 NMatD0=    1 NMtDS0=    0 NMtDT0=    0
 Symmetry not used in FoFCou.
 SCF Done:  E(RM05) =  -45.8799461884     A.U. after   10 cycles
            NFock= 10  Conv=0.36D-08     -V/T= 2.0334

 **********************************************************************

            Population analysis using the SCF density.

 **********************************************************************

 Alpha  occ. eigenvalues --  -12.05211  -0.99434  -0.71145  -0.71144  -0.71142
 Alpha virt. eigenvalues --   -0.08961  -0.01736  -0.01734  -0.01731  -0.00575
 Alpha virt. eigenvalues --   -0.00334  -0.00270   0.03169   0.03690   0.04464
 Alpha virt. eigenvalues --    0.05321   0.06008   0.06660   0.07097   0.08376
 Alpha virt. eigenvalues --    0.08408   0.09212   0.11002   0.11894   0.11988
 Alpha virt. eigenvalues --    0.15645   0.17106   0.18761   0.19650   0.19738
 Alpha virt. eigenvalues --    0.20447   0.20927   0.21298   0.21774   0.23019
 Alpha virt. eigenvalues --    0.24327   0.24814   0.25436   0.25999   0.26681
 Alpha virt. eigenvalues --    0.27350   0.27758   0.29378   0.29903   0.31049
 Alpha virt. eigenvalues --    0.31925   0.33400   0.34276   0.34526   0.35218
 Alpha virt. eigenvalues --    0.37518   0.37961   0.38793   0.41245   0.41355
 Alpha virt. eigenvalues --    0.42096   0.43875   0.44744   0.45343   0.47289
 Alpha virt. eigenvalues --    0.48500   0.49550   0.50770   0.53222   0.54244
 Alpha virt. eigenvalues --    0.54699   0.56065   0.57635   0.58310   0.60365
 Alpha virt. eigenvalues --    0.61852   0.62706   0.64533   0.64778   0.66572
 Alpha virt. eigenvalues --    0.67140   0.67884   0.70538   0.71046   0.71491
 Alpha virt. eigenvalues --    0.72627   0.74671   0.76824   0.77533   0.78299
 Alpha virt. eigenvalues --    0.80697   0.81622   0.82512   0.86618   0.86994
 Alpha virt. eigenvalues --    0.87702   0.89356   0.91472   0.92797   0.93465
 Alpha virt. eigenvalues --    0.95613   0.96370   0.96671   0.98209   0.98622
 Alpha virt. eigenvalues --    1.00847   1.01487   1.02354   1.03736   1.05080
 Alpha virt. eigenvalues --    1.06026   1.07898   1.08768   1.10686   1.12188
 Alpha virt. eigenvalues --    1.13982   1.15557   1.16967   1.17759   1.18625
 Alpha virt. eigenvalues --    1.21328   1.22436   1.23457   1.23679   1.25440
 Alpha virt. eigenvalues --    1.26403   1.27627   1.28155   1.30337   1.32519
 Alpha virt. eigenvalues --    1.35690   1.36622   1.37268   1.38054   1.39029
 Alpha virt. eigenvalues --    1.41714   1.42863   1.43572   1.46543   1.47399
 Alpha virt. eigenvalues --    1.47882   1.49814   1.51765   1.57249   1.60078
 Alpha virt. eigenvalues --    1.60664   1.63487   1.66844   1.69952   1.71874
 Alpha virt. eigenvalues --    1.74354   1.74835   1.78043   1.81322   1.83177
 Alpha virt. eigenvalues --    1.84861   1.87041   1.90218   1.92518   1.95709
 Alpha virt. eigenvalues --    1.99972   2.00393   2.04910   2.05478   2.06734
 Alpha virt. eigenvalues --    2.08866   2.14845   2.27964   2.29098   2.31841
 Alpha virt. eigenvalues --    2.42479   2.45046   2.47226   2.49970   2.51727
 Alpha virt. eigenvalues --    2.55611   2.67723   2.68600   2.70542   2.83882
 Alpha virt. eigenvalues --    2.98891   3.00068   3.01621   3.04404   3.06854
 Alpha virt. eigenvalues --    3.07778   3.09536   3.12275   3.22505   3.22910
 Alpha virt. eigenvalues --    3.25726   3.44900   3.45766   3.47104   3.48622
 Alpha virt. eigenvalues --    3.49251   3.49414   3.55236   3.57451   3.58864
 Alpha virt. eigenvalues --    3.80089   3.90828   3.91899   3.92716   3.98282
 Alpha virt. eigenvalues --    4.00631   4.01584   4.02303   4.03365   4.04025
 Alpha virt. eigenvalues --    4.04553   4.06113   4.06617   4.09423   4.11741
 Alpha virt. eigenvalues --    4.17814   4.18182   4.19714   4.23924   4.25347
 Alpha virt. eigenvalues --    4.32867   4.35837   4.37507   4.39179   4.45445
 Alpha virt. eigenvalues --    4.46462   4.48166   4.48403   4.49932   4.50875
 Alpha virt. eigenvalues --    4.53331   4.58579   4.60701   4.62797   4.65235
 Alpha virt. eigenvalues --    4.77963   4.84218   4.89489   4.89935   4.90451
 Alpha virt. eigenvalues --    4.91367   4.93478   4.96184   5.02636   5.03337
 Alpha virt. eigenvalues --    5.12677   5.14450   5.16542   5.16869   5.18112
 Alpha virt. eigenvalues --    5.20094   5.28514   5.29042   5.31723   5.39941
 Alpha virt. eigenvalues --    5.42092   5.46830   5.48252   5.49324   5.53944
 Alpha virt. eigenvalues --    5.62537   5.64158   5.67735   6.13333   6.14462
 Alpha virt. eigenvalues --    6.14711   6.22997   6.23085   6.80992   6.81568
 Alpha virt. eigenvalues --    6.82835   6.97519   7.64436   7.65790   7.68297
 Alpha virt. eigenvalues --    8.06257   8.07563   8.10963  10.34753  15.13160
 Alpha virt. eigenvalues --   52.57018
          Condensed to atoms (all electrons):
 Mulliken charges:
               1
     1  C    0.371596
     2  H   -0.016027
     3  H   -0.067477
     4  H   -0.063002
     5  H   -0.237745
     6  C    0.010051
     7  H    0.008222
     8  H    0.004167
     9  H   -0.010966
    10  H    0.001180
 Sum of Mulliken charges =   0.00000
 Mulliken charges with hydrogens summed into heavy atoms:
               1
     1  C   -0.012654
     6  C    0.012654
 Electronic spatial extent (au):  <R**2>=             35.5900
 Charge=              0.0000 electrons
 Dipole moment (field-independent basis, Debye):
    X=             -0.0002    Y=             -0.0003    Z=              0.0007  Tot=              0.0008

 Test job not archived.
 1\1\GINC-CHIMERA-NODE27\SP\RM05\Gen\C2H8\CONNORNM\07-Dec-2018\0\\#T M0
 5/Gen test Massage SCF=(tight,maxcyc=40)\\M05 opt\\0,1\C,0,0.,0.,0.\H,
 0,0.93652307,0.,0.59068647\H,0,-0.70194729,-0.74561741,0.42108269\H,0,
 -0.46176545,1.00555271,0.04027858\H,0,0.22718968,-0.25993531,-1.052047
 74\C,0,0.,0.,3.56053849\H,0,0.02702347,-0.9780665,3.04223201\H,0,1.026
 51107,0.4090999,3.63052598\H,0,-0.63907306,0.70210133,2.99077951\H,0,-
 0.41446148,-0.13313473,4.57861648\\Version=AS64L-G09RevD.01\HF=-45.879
 9462\RMSD=3.616e-09\Dipole=-0.0000712,-0.000115,0.0002686\Quadrupole=-
 0.0005678,-0.000582,0.0011498,0.0000779,-0.0004152,-0.0002012\PG=C01 [
 X(C2H8)]\\@


 The theorems and results in mathematical physics are
 not theorems and results about Nature, but about our
 description of it.
                   --Gerard 't Hooft
 Job cpu time:       0 days  0 hours 16 minutes 56.7 seconds.
 File lengths (MBytes):  RWF=     41 Int=      0 D2E=      0 Chk=      4 Scr=      1
 Normal termination of Gaussian 09 at Fri Dec  7 11:58:49 2018.
