 Entering Gaussian System, Link 0=/data/szalewicgrp/connornm/opt/Gaussian/g09-M05-par/g09/g09
 AtFile(1): aug-cc-pVTZ.gbs
 Initial command:
 /data/szalewicgrp/connornm/opt/Gaussian/g09-M05-par/g09/l1.exe "/scratch/local/Gau-18474.inp" -scrdir="/scratch/local/"
 Entering Link 1 = /data/szalewicgrp/connornm/opt/Gaussian/g09-M05-par/g09/l1.exe PID=     18475.
  
 Copyright (c) 1988,1990,1992,1993,1995,1998,2003,2009,2013,
            Gaussian, Inc.  All Rights Reserved.
  
 This is part of the Gaussian(R) 09 program.  It is based on
 the Gaussian(R) 03 system (copyright 2003, Gaussian, Inc.),
 the Gaussian(R) 98 system (copyright 1998, Gaussian, Inc.),
 the Gaussian(R) 94 system (copyright 1995, Gaussian, Inc.),
 the Gaussian 92(TM) system (copyright 1992, Gaussian, Inc.),
 the Gaussian 90(TM) system (copyright 1990, Gaussian, Inc.),
 the Gaussian 88(TM) system (copyright 1988, Gaussian, Inc.),
 the Gaussian 86(TM) system (copyright 1986, Carnegie Mellon
 University), and the Gaussian 82(TM) system (copyright 1983,
 Carnegie Mellon University). Gaussian is a federally registered
 trademark of Gaussian, Inc.
  
 This software contains proprietary and confidential information,
 including trade secrets, belonging to Gaussian, Inc.
  
 This software is provided under written license and may be
 used, copied, transmitted, or stored only in accord with that
 written license.
  
 The following legend is applicable only to US Government
 contracts under FAR:
  
                    RESTRICTED RIGHTS LEGEND
  
 Use, reproduction and disclosure by the US Government is
 subject to restrictions as set forth in subparagraphs (a)
 and (c) of the Commercial Computer Software - Restricted
 Rights clause in FAR 52.227-19.
  
 Gaussian, Inc.
 340 Quinnipiac St., Bldg. 40, Wallingford CT 06492
  
  
 ---------------------------------------------------------------
 Warning -- This program may not be used in any manner that
 competes with the business of Gaussian, Inc. or will provide
 assistance to any competitor of Gaussian, Inc.  The licensee
 of this program is prohibited from giving any competitor of
 Gaussian, Inc. access to this program.  By using this program,
 the user acknowledges that Gaussian, Inc. is engaged in the
 business of creating and licensing software in the field of
 computational chemistry and represents and warrants to the
 licensee that it is not a competitor of Gaussian, Inc. and that
 it will not use this program in any manner prohibited above.
 ---------------------------------------------------------------
  

 Cite this work as:
 Gaussian 09, Revision D.01,
 M. J. Frisch, G. W. Trucks, H. B. Schlegel, G. E. Scuseria, 
 M. A. Robb, J. R. Cheeseman, G. Scalmani, V. Barone, B. Mennucci, 
 G. A. Petersson, H. Nakatsuji, M. Caricato, X. Li, H. P. Hratchian, 
 A. F. Izmaylov, J. Bloino, G. Zheng, J. L. Sonnenberg, M. Hada, 
 M. Ehara, K. Toyota, R. Fukuda, J. Hasegawa, M. Ishida, T. Nakajima, 
 Y. Honda, O. Kitao, H. Nakai, T. Vreven, J. A. Montgomery, Jr., 
 J. E. Peralta, F. Ogliaro, M. Bearpark, J. J. Heyd, E. Brothers, 
 K. N. Kudin, V. N. Staroverov, T. Keith, R. Kobayashi, J. Normand, 
 K. Raghavachari, A. Rendell, J. C. Burant, S. S. Iyengar, J. Tomasi, 
 M. Cossi, N. Rega, J. M. Millam, M. Klene, J. E. Knox, J. B. Cross, 
 V. Bakken, C. Adamo, J. Jaramillo, R. Gomperts, R. E. Stratmann, 
 O. Yazyev, A. J. Austin, R. Cammi, C. Pomelli, J. W. Ochterski, 
 R. L. Martin, K. Morokuma, V. G. Zakrzewski, G. A. Voth, 
 P. Salvador, J. J. Dannenberg, S. Dapprich, A. D. Daniels, 
 O. Farkas, J. B. Foresman, J. V. Ortiz, J. Cioslowski, 
 and D. J. Fox, Gaussian, Inc., Wallingford CT, 2013.
 
 ******************************************
 Gaussian 09:  AS64L-G09RevD.01 24-Apr-2013
                 8-Dec-2018 
 ******************************************
 %Chk=CH400263
 %Mem=2GB
 %NProcShared=16
 Will use up to   16 processors via shared memory.
 ---------------------------------------------
 #T M05/Gen test Massage SCF=(tight,maxcyc=40)
 ---------------------------------------------
 -------
 M05 opt
 -------
 Symbolic Z-matrix:
 Charge =  0 Multiplicity = 1
 6                     0.        0.        0. 
 1                     0.97998   0.        0.5154 
 1                     0.15921  -0.01481  -1.09564 
 1                    -0.57557  -0.89656   0.30147 
 1                    -0.56362   0.91137   0.27877 
 6-Bq                  0.        0.        4.03128 
 1-Bq                 -0.00174  -0.01388   5.13843 
 1-Bq                 -1.02439   0.2026    3.6631 
 1-Bq                  0.68451   0.79322   3.67319 
 1-Bq                  0.34162  -0.98194   3.65039 
 
                    Distance matrix (angstroms):
                    1          2          3          4          5
     1  C    0.000000
     2  H    1.107242   0.000000
     3  H    1.107243   1.808119   0.000000
     4  H    1.107243   1.808119   1.808119   0.000000
     5  H    1.107243   1.808119   1.808119   1.808119   0.000000
     6  C    4.031278   3.649902   5.129407   3.878987   3.902515
     7  H    5.138451   4.726143   6.236146   4.950209   4.978771
     8  H    3.809029   3.737186   4.908535   3.565124   3.488317
     9  H    3.819697   3.269276   4.865240   3.976385   3.618551
    10  H    3.795563   3.346628   4.847001   3.473298   3.971397
                    6          7          8          9         10
     6  C    0.000000
     7  H    1.107243   0.000000
     8  H    1.107243   1.808119   0.000000
     9  H    1.107243   1.808119   1.808119   0.000000
    10  H    1.107243   1.808119   1.808119   1.808119   0.000000
 Symmetry turned off by external request.
 This structure is nearly, but not quite of a higher symmetry.
 Consider Symm=Loose if the higher symmetry is desired.
 Framework group  C1[X(C2H8)]
 Deg. of freedom    24
 Rotational constants (GHZ):     76.6916052      3.6928406      3.6928406
   276 basis functions,   360 primitive gaussians,   310 cartesian basis functions
     5 alpha electrons        5 beta electrons
       nuclear repulsion energy        13.2261669857 Hartrees.
 IMHF & INEx in M05                  614413                  385587
 NAtoms=   10 NActive=   10 NUniq=   10 SFac= 1.00D+00 NAtFMM=   60 NAOKFM=F Big=F
 ExpMin= 2.53D-02 ExpMax= 8.24D+03 ExpMxC= 2.81D+02 IAcc=3 IRadAn=         5 AccDes= 0.00D+00
 Harris functional with IExCor= 1009 and IRadAn=       5 diagonalized for initial guess.
 HarFok:  IExCor= 1009 AccDes= 0.00D+00 IRadAn=         5 IDoV= 1 UseB2=F ITyADJ=14
 ICtDFT=  3500011 ScaDFX=  1.000000  1.000000  1.000000  1.000000
 FoFCou: FMM=F IPFlag=           0 FMFlag=      100000 FMFlg1=           0
         NFxFlg=           0 DoJE=T BraDBF=F KetDBF=T FulRan=T
         wScrn=  0.000000 ICntrl=     500 IOpCl=  0 I1Cent=   200000004 NGrid=           0
         NMat0=    1 NMatS0=      1 NMatT0=    0 NMatD0=    1 NMtDS0=    0 NMtDT0=    0
 Symmetry not used in FoFCou.
 SCF Done:  E(RM05) =  -44.2931926503     A.U. after   10 cycles
            NFock= 10  Conv=0.10D-08     -V/T= 2.0246

 **********************************************************************

            Population analysis using the SCF density.

 **********************************************************************

 Alpha  occ. eigenvalues --  -11.62239  -0.92991  -0.62331  -0.62330  -0.62329
 Alpha virt. eigenvalues --   -0.06485  -0.00234  -0.00130  -0.00126   0.02114
 Alpha virt. eigenvalues --    0.02860   0.02906   0.03603   0.04201   0.04418
 Alpha virt. eigenvalues --    0.05900   0.07829   0.08041   0.08113   0.09551
 Alpha virt. eigenvalues --    0.10102   0.10244   0.10912   0.11302   0.11440
 Alpha virt. eigenvalues --    0.16925   0.19311   0.19738   0.19923   0.20416
 Alpha virt. eigenvalues --    0.21009   0.21234   0.21490   0.21975   0.22651
 Alpha virt. eigenvalues --    0.25707   0.26840   0.27258   0.27307   0.27710
 Alpha virt. eigenvalues --    0.28265   0.28276   0.29973   0.30286   0.30914
 Alpha virt. eigenvalues --    0.31841   0.32032   0.33375   0.34741   0.35197
 Alpha virt. eigenvalues --    0.38325   0.38487   0.39513   0.40495   0.40854
 Alpha virt. eigenvalues --    0.41047   0.42636   0.45421   0.45935   0.46261
 Alpha virt. eigenvalues --    0.47017   0.50857   0.51917   0.52737   0.54975
 Alpha virt. eigenvalues --    0.55278   0.56944   0.59990   0.61373   0.61889
 Alpha virt. eigenvalues --    0.65135   0.65567   0.67212   0.67237   0.69693
 Alpha virt. eigenvalues --    0.70230   0.70764   0.74555   0.76089   0.76349
 Alpha virt. eigenvalues --    0.77356   0.77472   0.79167   0.80747   0.81666
 Alpha virt. eigenvalues --    0.82016   0.84021   0.84916   0.86528   0.88487
 Alpha virt. eigenvalues --    0.90078   0.92618   0.93998   0.94745   0.95862
 Alpha virt. eigenvalues --    0.96404   0.97499   0.98424   0.99275   0.99976
 Alpha virt. eigenvalues --    1.01761   1.02231   1.03696   1.03796   1.04144
 Alpha virt. eigenvalues --    1.05765   1.06679   1.07433   1.09918   1.10576
 Alpha virt. eigenvalues --    1.11514   1.12537   1.14435   1.17664   1.18999
 Alpha virt. eigenvalues --    1.23435   1.23555   1.24422   1.25548   1.27216
 Alpha virt. eigenvalues --    1.29762   1.32949   1.33444   1.34141   1.34643
 Alpha virt. eigenvalues --    1.35117   1.36637   1.37482   1.37723   1.40016
 Alpha virt. eigenvalues --    1.40702   1.43131   1.46904   1.48026   1.49790
 Alpha virt. eigenvalues --    1.52790   1.54009   1.54138   1.56134   1.59856
 Alpha virt. eigenvalues --    1.62958   1.65104   1.66470   1.69210   1.69278
 Alpha virt. eigenvalues --    1.71988   1.81170   1.82048   1.84248   1.85099
 Alpha virt. eigenvalues --    1.85690   1.87201   1.94751   1.95215   1.96424
 Alpha virt. eigenvalues --    2.01057   2.01160   2.03883   2.06165   2.07218
 Alpha virt. eigenvalues --    2.08554   2.23058   2.28281   2.28437   2.30987
 Alpha virt. eigenvalues --    2.44423   2.44727   2.45918   2.61122   2.61788
 Alpha virt. eigenvalues --    2.66248   2.67997   2.68271   2.73786   2.85569
 Alpha virt. eigenvalues --    3.05457   3.05964   3.08871   3.09168   3.09306
 Alpha virt. eigenvalues --    3.12105   3.13147   3.19465   3.35204   3.35358
 Alpha virt. eigenvalues --    3.36652   3.53894   3.54561   3.54961   3.57456
 Alpha virt. eigenvalues --    3.58215   3.58391   3.61441   3.66188   3.66531
 Alpha virt. eigenvalues --    3.73824   3.98724   4.00227   4.00573   4.00989
 Alpha virt. eigenvalues --    4.01902   4.02560   4.02858   4.03340   4.04486
 Alpha virt. eigenvalues --    4.12256   4.12709   4.16382   4.16817   4.17519
 Alpha virt. eigenvalues --    4.17746   4.19331   4.29511   4.30245   4.30309
 Alpha virt. eigenvalues --    4.35847   4.37185   4.37686   4.44924   4.45423
 Alpha virt. eigenvalues --    4.47408   4.53608   4.53735   4.55896   4.58324
 Alpha virt. eigenvalues --    4.58536   4.59237   4.59840   4.60035   4.65953
 Alpha virt. eigenvalues --    4.75908   4.91718   4.92082   4.95169   4.98711
 Alpha virt. eigenvalues --    4.98959   4.99538   4.99982   5.13425   5.13446
 Alpha virt. eigenvalues --    5.14789   5.15864   5.16310   5.29491   5.29543
 Alpha virt. eigenvalues --    5.30601   5.30779   5.31358   5.32633   5.41233
 Alpha virt. eigenvalues --    5.41421   5.47503   5.47511   5.49033   5.55016
 Alpha virt. eigenvalues --    5.76788   5.77590   5.83164   6.13288   6.14362
 Alpha virt. eigenvalues --    6.14457   6.24081   6.24096   6.80534   6.80828
 Alpha virt. eigenvalues --    6.82940   6.97546   7.65420   7.65569   7.69308
 Alpha virt. eigenvalues --    8.05425   8.05960   8.11792  10.32550  15.60836
 Alpha virt. eigenvalues --   52.53776
          Condensed to atoms (all electrons):
 Mulliken charges:
               1
     1  C   -0.771519
     2  H    0.235743
     3  H    0.093991
     4  H    0.219655
     5  H    0.223112
     6  C    0.002201
     7  H   -0.000733
     8  H   -0.001303
     9  H   -0.000762
    10  H   -0.000385
 Sum of Mulliken charges =  -0.00000
 Mulliken charges with hydrogens summed into heavy atoms:
               1
     1  C    0.000982
     6  C   -0.000982
 Electronic spatial extent (au):  <R**2>=             36.3367
 Charge=             -0.0000 electrons
 Dipole moment (field-independent basis, Debye):
    X=             -0.0002    Y=             -0.0000    Z=              0.0002  Tot=              0.0003

 Test job not archived.
 1\1\GINC-CHIMERA-NODE48\SP\RM05\Gen\C2H8\CONNORNM\08-Dec-2018\0\\#T M0
 5/Gen test Massage SCF=(tight,maxcyc=40)\\M05 opt\\0,1\C,0,0.,0.,0.\H,
 0,0.97997608,0.,0.5153958\H,0,0.15921221,-0.01481243,-1.0956359\H,0,-0
 .57556525,-0.89656249,0.30147355\H,0,-0.56362304,0.91137492,0.27876655
 \C,0,0.,0.,4.03127832\H,0,-0.00174248,-0.0138807,5.13843244\H,0,-1.024
 39321,0.20259855,3.66309583\H,0,0.68451207,0.79322259,3.67319019\H,0,0
 .34162362,-0.98194044,3.65039482\\Version=AS64L-G09RevD.01\HF=-44.2931
 927\RMSD=1.026e-09\Dipole=-0.0000728,-0.0000019,0.0000678\Quadrupole=-
 0.000146,-0.000652,0.000798,-0.0000424,-0.0007243,0.0000053\PG=C01 [X(
 C2H8)]\\@


 FROM WHENCE IT HAPPENS, THAT THEY WHICH TRUST TO BOOKS, DO AS THEY THAT CAST UP MANY LITTLE SUMMS INTO GREATER,
 WITHOUT CONSIDERING WETHER THOSE LITTLE SUMMES WERE RIGHTLY CAST UP OR NOT...
 AND AT LAST FINDING THE ERROUR VISIBLE, AND NOT MISTRUSTING THEIR FIRST GROUNDS,
 KNOW NOT WHICH WAY TO CLEERE THEMSELVES...
 BUT SPEND TIME IN FLUTTERING OVER THEIR BOOKES....
 AS BIRDS THAT ENTERING BY THE CHIMNEY, AND FINDING THEMSELVES INCLOSED IN A CHAMBER,
 FLUTTER AT THE FALSE LIGHT OF A GLASSE WINDOW,
 FOR WANT OF WIT TO CONSIDER WHICH WAY THEY CAME IN....
           LEVIATHAN
 Job cpu time:       0 days  0 hours 15 minutes 43.5 seconds.
 File lengths (MBytes):  RWF=     41 Int=      0 D2E=      0 Chk=      4 Scr=      1
 Normal termination of Gaussian 09 at Sat Dec  8 13:12:07 2018.
