 Entering Gaussian System, Link 0=/data/szalewicgrp/connornm/opt/Gaussian/g09-M05-par/g09/g09
 AtFile(1): aug-cc-pVTZ.gbs
 Initial command:
 /data/szalewicgrp/connornm/opt/Gaussian/g09-M05-par/g09/l1.exe "/scratch/local/Gau-17919.inp" -scrdir="/scratch/local/"
 Entering Link 1 = /data/szalewicgrp/connornm/opt/Gaussian/g09-M05-par/g09/l1.exe PID=     17920.
  
 Copyright (c) 1988,1990,1992,1993,1995,1998,2003,2009,2013,
            Gaussian, Inc.  All Rights Reserved.
  
 This is part of the Gaussian(R) 09 program.  It is based on
 the Gaussian(R) 03 system (copyright 2003, Gaussian, Inc.),
 the Gaussian(R) 98 system (copyright 1998, Gaussian, Inc.),
 the Gaussian(R) 94 system (copyright 1995, Gaussian, Inc.),
 the Gaussian 92(TM) system (copyright 1992, Gaussian, Inc.),
 the Gaussian 90(TM) system (copyright 1990, Gaussian, Inc.),
 the Gaussian 88(TM) system (copyright 1988, Gaussian, Inc.),
 the Gaussian 86(TM) system (copyright 1986, Carnegie Mellon
 University), and the Gaussian 82(TM) system (copyright 1983,
 Carnegie Mellon University). Gaussian is a federally registered
 trademark of Gaussian, Inc.
  
 This software contains proprietary and confidential information,
 including trade secrets, belonging to Gaussian, Inc.
  
 This software is provided under written license and may be
 used, copied, transmitted, or stored only in accord with that
 written license.
  
 The following legend is applicable only to US Government
 contracts under FAR:
  
                    RESTRICTED RIGHTS LEGEND
  
 Use, reproduction and disclosure by the US Government is
 subject to restrictions as set forth in subparagraphs (a)
 and (c) of the Commercial Computer Software - Restricted
 Rights clause in FAR 52.227-19.
  
 Gaussian, Inc.
 340 Quinnipiac St., Bldg. 40, Wallingford CT 06492
  
  
 ---------------------------------------------------------------
 Warning -- This program may not be used in any manner that
 competes with the business of Gaussian, Inc. or will provide
 assistance to any competitor of Gaussian, Inc.  The licensee
 of this program is prohibited from giving any competitor of
 Gaussian, Inc. access to this program.  By using this program,
 the user acknowledges that Gaussian, Inc. is engaged in the
 business of creating and licensing software in the field of
 computational chemistry and represents and warrants to the
 licensee that it is not a competitor of Gaussian, Inc. and that
 it will not use this program in any manner prohibited above.
 ---------------------------------------------------------------
  

 Cite this work as:
 Gaussian 09, Revision D.01,
 M. J. Frisch, G. W. Trucks, H. B. Schlegel, G. E. Scuseria, 
 M. A. Robb, J. R. Cheeseman, G. Scalmani, V. Barone, B. Mennucci, 
 G. A. Petersson, H. Nakatsuji, M. Caricato, X. Li, H. P. Hratchian, 
 A. F. Izmaylov, J. Bloino, G. Zheng, J. L. Sonnenberg, M. Hada, 
 M. Ehara, K. Toyota, R. Fukuda, J. Hasegawa, M. Ishida, T. Nakajima, 
 Y. Honda, O. Kitao, H. Nakai, T. Vreven, J. A. Montgomery, Jr., 
 J. E. Peralta, F. Ogliaro, M. Bearpark, J. J. Heyd, E. Brothers, 
 K. N. Kudin, V. N. Staroverov, T. Keith, R. Kobayashi, J. Normand, 
 K. Raghavachari, A. Rendell, J. C. Burant, S. S. Iyengar, J. Tomasi, 
 M. Cossi, N. Rega, J. M. Millam, M. Klene, J. E. Knox, J. B. Cross, 
 V. Bakken, C. Adamo, J. Jaramillo, R. Gomperts, R. E. Stratmann, 
 O. Yazyev, A. J. Austin, R. Cammi, C. Pomelli, J. W. Ochterski, 
 R. L. Martin, K. Morokuma, V. G. Zakrzewski, G. A. Voth, 
 P. Salvador, J. J. Dannenberg, S. Dapprich, A. D. Daniels, 
 O. Farkas, J. B. Foresman, J. V. Ortiz, J. Cioslowski, 
 and D. J. Fox, Gaussian, Inc., Wallingford CT, 2013.
 
 ******************************************
 Gaussian 09:  AS64L-G09RevD.01 24-Apr-2013
                 8-Dec-2018 
 ******************************************
 %Chk=CH400061
 %Mem=2GB
 %NProcShared=16
 Will use up to   16 processors via shared memory.
 ---------------------------------------------
 #T M05/Gen test Massage SCF=(tight,maxcyc=40)
 ---------------------------------------------
 -------
 M05 opt
 -------
 Symbolic Z-matrix:
 Charge =  0 Multiplicity = 1
 6                     0.        0.        0. 
 1                     0.54918   0.       -0.96145 
 1                    -1.04527  -0.32221  -0.17201 
 1                     0.49034  -0.69881   0.70513 
 1                     0.00574   1.02102   0.42833 
 6-Bq                  0.        0.        2.52343 
 1-Bq                  0.94149  -0.49948   2.22325 
 1-Bq                 -0.80788  -0.7529    2.60377 
 1-Bq                  0.14136   0.49568   3.50338 
 1-Bq                 -0.27496   0.75671   1.76331 
 
                    Distance matrix (angstroms):
                    1          2          3          4          5
     1  C    0.000000
     2  H    1.107243   0.000000
     3  H    1.107242   1.808119   0.000000
     4  H    1.107243   1.808119   1.808119   0.000000
     5  H    1.107242   1.808119   1.808119   1.808119   0.000000
     6  C    2.523427   3.527884   2.908913   2.008724   2.330657
     7  H    2.465501   3.247409   3.117026   1.596225   2.531655
     8  H    2.828280   3.888353   2.819011   2.300682   2.922561
     9  H    3.541094   4.510734   3.947846   3.062482   3.122550
    10  H    1.938420   2.945528   2.345822   1.955498   1.389547
                    6          7          8          9         10
     6  C    0.000000
     7  H    1.107242   0.000000
     8  H    1.107242   1.808119   0.000000
     9  H    1.107242   1.808119   1.808119   0.000000
    10  H    1.107243   1.808119   1.808119   1.808119   0.000000
 Symmetry turned off by external request.
 This structure is nearly, but not quite of a higher symmetry.
 Consider Symm=Loose if the higher symmetry is desired.
 Framework group  C1[X(C2H8)]
 Deg. of freedom    24
 Rotational constants (GHZ):     76.6916056      8.7692395      8.7692395
   276 basis functions,   360 primitive gaussians,   310 cartesian basis functions
     5 alpha electrons        5 beta electrons
       nuclear repulsion energy        13.2261669970 Hartrees.
 IMHF & INEx in M05                  614413                  385587
 NAtoms=   10 NActive=   10 NUniq=   10 SFac= 1.00D+00 NAtFMM=   60 NAOKFM=F Big=F
 ExpMin= 2.53D-02 ExpMax= 8.24D+03 ExpMxC= 2.81D+02 IAcc=3 IRadAn=         5 AccDes= 0.00D+00
 Harris functional with IExCor= 1009 and IRadAn=       5 diagonalized for initial guess.
 HarFok:  IExCor= 1009 AccDes= 0.00D+00 IRadAn=         5 IDoV= 1 UseB2=F ITyADJ=14
 ICtDFT=  3500011 ScaDFX=  1.000000  1.000000  1.000000  1.000000
 FoFCou: FMM=F IPFlag=           0 FMFlag=      100000 FMFlg1=           0
         NFxFlg=           0 DoJE=T BraDBF=F KetDBF=T FulRan=T
         wScrn=  0.000000 ICntrl=     500 IOpCl=  0 I1Cent=   200000004 NGrid=           0
         NMat0=    1 NMatS0=      1 NMatT0=    0 NMatD0=    1 NMtDS0=    0 NMtDT0=    0
 Symmetry not used in FoFCou.
 SCF Done:  E(RM05) =  -45.8814096355     A.U. after   11 cycles
            NFock= 11  Conv=0.31D-08     -V/T= 2.0329

 **********************************************************************

            Population analysis using the SCF density.

 **********************************************************************

 Alpha  occ. eigenvalues --  -12.05234  -0.99449  -0.71171  -0.71162  -0.71147
 Alpha virt. eigenvalues --   -0.08949  -0.01732  -0.01726  -0.01713  -0.00548
 Alpha virt. eigenvalues --   -0.00359  -0.00342   0.03338   0.03704   0.04328
 Alpha virt. eigenvalues --    0.05621   0.06197   0.06391   0.07135   0.08162
 Alpha virt. eigenvalues --    0.08637   0.09936   0.11186   0.12436   0.14011
 Alpha virt. eigenvalues --    0.15692   0.17472   0.19022   0.19612   0.19922
 Alpha virt. eigenvalues --    0.20726   0.21020   0.21856   0.23093   0.23624
 Alpha virt. eigenvalues --    0.24482   0.24828   0.25750   0.26863   0.27756
 Alpha virt. eigenvalues --    0.29098   0.29277   0.30693   0.31621   0.32175
 Alpha virt. eigenvalues --    0.33963   0.34676   0.36369   0.37506   0.37755
 Alpha virt. eigenvalues --    0.38834   0.40157   0.41461   0.42816   0.43485
 Alpha virt. eigenvalues --    0.44129   0.44309   0.45845   0.46454   0.48456
 Alpha virt. eigenvalues --    0.50210   0.51056   0.53371   0.54841   0.55534
 Alpha virt. eigenvalues --    0.56472   0.56846   0.58286   0.59656   0.59891
 Alpha virt. eigenvalues --    0.60962   0.62775   0.63241   0.65632   0.66705
 Alpha virt. eigenvalues --    0.68235   0.70378   0.70701   0.73220   0.74577
 Alpha virt. eigenvalues --    0.76082   0.77969   0.79059   0.79760   0.82804
 Alpha virt. eigenvalues --    0.84252   0.84865   0.85651   0.87119   0.89887
 Alpha virt. eigenvalues --    0.90408   0.91944   0.92861   0.94282   0.94937
 Alpha virt. eigenvalues --    0.95796   0.97820   1.00777   1.01550   1.02118
 Alpha virt. eigenvalues --    1.03914   1.04153   1.05330   1.07676   1.09854
 Alpha virt. eigenvalues --    1.10490   1.10882   1.12281   1.14931   1.17720
 Alpha virt. eigenvalues --    1.19236   1.20280   1.22011   1.22193   1.24351
 Alpha virt. eigenvalues --    1.25186   1.26637   1.27538   1.28810   1.29908
 Alpha virt. eigenvalues --    1.31110   1.33362   1.33795   1.35173   1.37422
 Alpha virt. eigenvalues --    1.40398   1.41963   1.43788   1.45090   1.46781
 Alpha virt. eigenvalues --    1.47100   1.48059   1.51178   1.54602   1.55749
 Alpha virt. eigenvalues --    1.56031   1.61745   1.63853   1.66384   1.70455
 Alpha virt. eigenvalues --    1.72260   1.73814   1.75057   1.75751   1.77019
 Alpha virt. eigenvalues --    1.80718   1.81143   1.83973   1.85807   1.87797
 Alpha virt. eigenvalues --    1.89915   1.90987   1.92719   1.96643   1.97176
 Alpha virt. eigenvalues --    1.98879   2.04346   2.05403   2.09902   2.11574
 Alpha virt. eigenvalues --    2.12530   2.23640   2.28579   2.32368   2.33353
 Alpha virt. eigenvalues --    2.39846   2.46230   2.53703   2.56690   2.60144
 Alpha virt. eigenvalues --    2.64051   2.64883   2.75816   2.76839   2.83789
 Alpha virt. eigenvalues --    3.03038   3.08092   3.10958   3.11805   3.15566
 Alpha virt. eigenvalues --    3.18081   3.21789   3.25033   3.28146   3.31409
 Alpha virt. eigenvalues --    3.35955   3.48281   3.50166   3.51793   3.54303
 Alpha virt. eigenvalues --    3.57225   3.60907   3.62740   3.65501   3.68381
 Alpha virt. eigenvalues --    3.77434   3.82170   3.87295   3.88727   3.94330
 Alpha virt. eigenvalues --    3.96911   4.00642   4.01874   4.04259   4.05646
 Alpha virt. eigenvalues --    4.07354   4.09187   4.12863   4.15237   4.16843
 Alpha virt. eigenvalues --    4.17848   4.22221   4.24612   4.26979   4.30418
 Alpha virt. eigenvalues --    4.32459   4.34897   4.40745   4.43688   4.44398
 Alpha virt. eigenvalues --    4.46925   4.51238   4.53453   4.56067   4.56900
 Alpha virt. eigenvalues --    4.59523   4.63898   4.66620   4.72475   4.75408
 Alpha virt. eigenvalues --    4.80247   4.85166   4.86309   4.88397   4.92993
 Alpha virt. eigenvalues --    4.97821   5.00466   5.03406   5.07579   5.11550
 Alpha virt. eigenvalues --    5.15344   5.16859   5.18762   5.21400   5.24824
 Alpha virt. eigenvalues --    5.29641   5.33176   5.37365   5.40444   5.41684
 Alpha virt. eigenvalues --    5.47896   5.52813   5.54697   5.60774   5.66911
 Alpha virt. eigenvalues --    5.73268   5.76885   5.82027   6.01428   6.05264
 Alpha virt. eigenvalues --    6.09613   6.11344   6.30897   6.75639   6.77344
 Alpha virt. eigenvalues --    6.81616   6.88923   7.46242   7.55736   7.63175
 Alpha virt. eigenvalues --    7.97651   8.06067   8.08202  10.42608  15.77632
 Alpha virt. eigenvalues --   53.82499
          Condensed to atoms (all electrons):
 Mulliken charges:
               1
     1  C    0.016136
     2  H   -0.836496
     3  H    0.004135
     4  H    0.411772
     5  H    0.743592
     6  C    0.131953
     7  H    0.093194
     8  H   -0.017278
     9  H    0.000562
    10  H   -0.547569
 Sum of Mulliken charges =  -0.00000
 Mulliken charges with hydrogens summed into heavy atoms:
               1
     1  C    0.339139
     6  C   -0.339139
 Electronic spatial extent (au):  <R**2>=             35.5898
 Charge=             -0.0000 electrons
 Dipole moment (field-independent basis, Debye):
    X=              0.0007    Y=              0.0001    Z=             -0.0013  Tot=              0.0015

 Test job not archived.
 1\1\GINC-CHIMERA-NODE56\SP\RM05\Gen\C2H8\CONNORNM\08-Dec-2018\0\\#T M0
 5/Gen test Massage SCF=(tight,maxcyc=40)\\M05 opt\\0,1\C,0,0.,0.,0.\H,
 0,0.5491814,0.,-0.96144982\H,0,-1.04526531,-0.32220986,-0.17200927\H,0
 ,0.49034191,-0.69881343,0.70513159\H,0,0.00574201,1.02102328,0.4283274
 9\C,0,0.,0.,2.523427\H,0,0.94148608,-0.49948053,2.2232452\H,0,-0.80787
 672,-0.75290477,2.60377353\H,0,0.14135556,0.49568003,3.50337897\H,0,-0
 .27496491,0.75670527,1.7633103\\Version=AS64L-G09RevD.01\HF=-45.881409
 6\RMSD=3.054e-09\Dipole=0.0002619,0.0000498,-0.0005248\Quadrupole=-0.0
 003091,0.0000683,0.0002408,0.0006236,-0.0013249,0.0004656\PG=C01 [X(C2
 H8)]\\@



 IN THIS SHORT LIFE

 THAT ONLY LASTS AN HOUR

 HOW MUCH, HOW LITTLE, IS WITHIN OUR POWER....


 EMILY DICKINSON BOLTS OF MELODY NO. 521
 Job cpu time:       0 days  0 hours 20 minutes 45.2 seconds.
 File lengths (MBytes):  RWF=     41 Int=      0 D2E=      0 Chk=      4 Scr=      1
 Normal termination of Gaussian 09 at Sat Dec  8 14:09:16 2018.
