 Entering Gaussian System, Link 0=/data/szalewicgrp/connornm/opt/Gaussian/g09-M05-par/g09/g09
 AtFile(1): aug-cc-pVTZ.gbs
 Initial command:
 /data/szalewicgrp/connornm/opt/Gaussian/g09-M05-par/g09/l1.exe "/scratch/local/Gau-25226.inp" -scrdir="/scratch/local/"
 Entering Link 1 = /data/szalewicgrp/connornm/opt/Gaussian/g09-M05-par/g09/l1.exe PID=     25231.
  
 Copyright (c) 1988,1990,1992,1993,1995,1998,2003,2009,2013,
            Gaussian, Inc.  All Rights Reserved.
  
 This is part of the Gaussian(R) 09 program.  It is based on
 the Gaussian(R) 03 system (copyright 2003, Gaussian, Inc.),
 the Gaussian(R) 98 system (copyright 1998, Gaussian, Inc.),
 the Gaussian(R) 94 system (copyright 1995, Gaussian, Inc.),
 the Gaussian 92(TM) system (copyright 1992, Gaussian, Inc.),
 the Gaussian 90(TM) system (copyright 1990, Gaussian, Inc.),
 the Gaussian 88(TM) system (copyright 1988, Gaussian, Inc.),
 the Gaussian 86(TM) system (copyright 1986, Carnegie Mellon
 University), and the Gaussian 82(TM) system (copyright 1983,
 Carnegie Mellon University). Gaussian is a federally registered
 trademark of Gaussian, Inc.
  
 This software contains proprietary and confidential information,
 including trade secrets, belonging to Gaussian, Inc.
  
 This software is provided under written license and may be
 used, copied, transmitted, or stored only in accord with that
 written license.
  
 The following legend is applicable only to US Government
 contracts under FAR:
  
                    RESTRICTED RIGHTS LEGEND
  
 Use, reproduction and disclosure by the US Government is
 subject to restrictions as set forth in subparagraphs (a)
 and (c) of the Commercial Computer Software - Restricted
 Rights clause in FAR 52.227-19.
  
 Gaussian, Inc.
 340 Quinnipiac St., Bldg. 40, Wallingford CT 06492
  
  
 ---------------------------------------------------------------
 Warning -- This program may not be used in any manner that
 competes with the business of Gaussian, Inc. or will provide
 assistance to any competitor of Gaussian, Inc.  The licensee
 of this program is prohibited from giving any competitor of
 Gaussian, Inc. access to this program.  By using this program,
 the user acknowledges that Gaussian, Inc. is engaged in the
 business of creating and licensing software in the field of
 computational chemistry and represents and warrants to the
 licensee that it is not a competitor of Gaussian, Inc. and that
 it will not use this program in any manner prohibited above.
 ---------------------------------------------------------------
  

 Cite this work as:
 Gaussian 09, Revision D.01,
 M. J. Frisch, G. W. Trucks, H. B. Schlegel, G. E. Scuseria, 
 M. A. Robb, J. R. Cheeseman, G. Scalmani, V. Barone, B. Mennucci, 
 G. A. Petersson, H. Nakatsuji, M. Caricato, X. Li, H. P. Hratchian, 
 A. F. Izmaylov, J. Bloino, G. Zheng, J. L. Sonnenberg, M. Hada, 
 M. Ehara, K. Toyota, R. Fukuda, J. Hasegawa, M. Ishida, T. Nakajima, 
 Y. Honda, O. Kitao, H. Nakai, T. Vreven, J. A. Montgomery, Jr., 
 J. E. Peralta, F. Ogliaro, M. Bearpark, J. J. Heyd, E. Brothers, 
 K. N. Kudin, V. N. Staroverov, T. Keith, R. Kobayashi, J. Normand, 
 K. Raghavachari, A. Rendell, J. C. Burant, S. S. Iyengar, J. Tomasi, 
 M. Cossi, N. Rega, J. M. Millam, M. Klene, J. E. Knox, J. B. Cross, 
 V. Bakken, C. Adamo, J. Jaramillo, R. Gomperts, R. E. Stratmann, 
 O. Yazyev, A. J. Austin, R. Cammi, C. Pomelli, J. W. Ochterski, 
 R. L. Martin, K. Morokuma, V. G. Zakrzewski, G. A. Voth, 
 P. Salvador, J. J. Dannenberg, S. Dapprich, A. D. Daniels, 
 O. Farkas, J. B. Foresman, J. V. Ortiz, J. Cioslowski, 
 and D. J. Fox, Gaussian, Inc., Wallingford CT, 2013.
 
 ******************************************
 Gaussian 09:  AS64L-G09RevD.01 24-Apr-2013
                 7-Dec-2018 
 ******************************************
 %Chk=CH400149
 %Mem=2GB
 %NProcShared=16
 Will use up to   16 processors via shared memory.
 ---------------------------------------------
 #T M05/Gen test Massage SCF=(tight,maxcyc=40)
 ---------------------------------------------
 -------
 M05 opt
 -------
 Symbolic Z-matrix:
 Charge =  0 Multiplicity = 1
 6                     0.        0.        0. 
 1                     0.71104   0.       -0.84877 
 1                     0.13981   0.92094   0.59859 
 1                    -1.0368   -0.03476  -0.38707 
 1                     0.18596  -0.88618   0.63725 
 6-Bq                  0.        0.        2.73716 
 1-Bq                 -0.65322   0.43798   3.51656 
 1-Bq                  0.41169  -0.96222   3.09859 
 1-Bq                 -0.58962  -0.1735    1.81616 
 1-Bq                  0.83115   0.69775   2.51734 
 
                    Distance matrix (angstroms):
                    1          2          3          4          5
     1  C    0.000000
     2  H    1.107243   0.000000
     3  H    1.107243   1.808119   0.000000
     4  H    1.107243   1.808119   1.808119   0.000000
     5  H    1.107243   1.808119   1.808119   1.808119   0.000000
     6  C    2.737161   3.655747   2.332626   3.291961   2.286810
     7  H    3.603429   4.594468   3.062134   3.950817   3.278414
     8  H    3.270565   4.073956   3.141684   3.886919   2.472831
     9  H    1.917341   2.970467   1.792299   2.252439   1.580900
    10  H    2.741284   3.439761   2.051669   3.530071   2.541614
                    6          7          8          9         10
     6  C    0.000000
     7  H    1.107243   0.000000
     8  H    1.107243   1.808119   0.000000
     9  H    1.107243   1.808119   1.808119   0.000000
    10  H    1.107243   1.808119   1.808119   1.808119   0.000000
 Symmetry turned off by external request.
 This structure is nearly, but not quite of a higher symmetry.
 Consider Symm=Loose if the higher symmetry is desired.
 Framework group  C1[X(C2H8)]
 Deg. of freedom    24
 Rotational constants (GHZ):     76.6916053      7.5833327      7.5833327
   276 basis functions,   360 primitive gaussians,   310 cartesian basis functions
     5 alpha electrons        5 beta electrons
       nuclear repulsion energy        13.2261669705 Hartrees.
 IMHF & INEx in M05                  614413                  385587
 NAtoms=   10 NActive=   10 NUniq=   10 SFac= 1.00D+00 NAtFMM=   60 NAOKFM=F Big=F
 ExpMin= 2.53D-02 ExpMax= 8.24D+03 ExpMxC= 2.81D+02 IAcc=3 IRadAn=         5 AccDes= 0.00D+00
 Harris functional with IExCor= 1009 and IRadAn=       5 diagonalized for initial guess.
 HarFok:  IExCor= 1009 AccDes= 0.00D+00 IRadAn=         5 IDoV= 1 UseB2=F ITyADJ=14
 ICtDFT=  3500011 ScaDFX=  1.000000  1.000000  1.000000  1.000000
 FoFCou: FMM=F IPFlag=           0 FMFlag=      100000 FMFlg1=           0
         NFxFlg=           0 DoJE=T BraDBF=F KetDBF=T FulRan=T
         wScrn=  0.000000 ICntrl=     500 IOpCl=  0 I1Cent=   200000004 NGrid=           0
         NMat0=    1 NMatS0=      1 NMatT0=    0 NMatD0=    1 NMtDS0=    0 NMtDT0=    0
 Symmetry not used in FoFCou.
 SCF Done:  E(RM05) =  -40.9123058819     A.U. after    7 cycles
            NFock=  7  Conv=0.66D-08     -V/T= 2.0127

 **********************************************************************

            Population analysis using the SCF density.

 **********************************************************************

 Alpha  occ. eigenvalues --  -10.74531  -0.82769  -0.48754  -0.48753  -0.48752
 Alpha virt. eigenvalues --   -0.00121   0.02474   0.02700   0.02826   0.04837
 Alpha virt. eigenvalues --    0.05199   0.05824   0.06614   0.08157   0.09213
 Alpha virt. eigenvalues --    0.09908   0.10777   0.11010   0.11884   0.12465
 Alpha virt. eigenvalues --    0.12725   0.15184   0.16133   0.17488   0.18966
 Alpha virt. eigenvalues --    0.21368   0.22296   0.23660   0.25025   0.26818
 Alpha virt. eigenvalues --    0.27370   0.27705   0.28191   0.28667   0.29163
 Alpha virt. eigenvalues --    0.30166   0.30567   0.32004   0.32122   0.33146
 Alpha virt. eigenvalues --    0.33849   0.34439   0.35417   0.36034   0.36811
 Alpha virt. eigenvalues --    0.37295   0.38565   0.41266   0.42945   0.43485
 Alpha virt. eigenvalues --    0.44774   0.44887   0.45258   0.46895   0.47796
 Alpha virt. eigenvalues --    0.47947   0.50199   0.51035   0.52280   0.54871
 Alpha virt. eigenvalues --    0.55488   0.57449   0.57999   0.59423   0.61397
 Alpha virt. eigenvalues --    0.63767   0.66559   0.66950   0.68881   0.70414
 Alpha virt. eigenvalues --    0.71195   0.74516   0.75392   0.75789   0.78612
 Alpha virt. eigenvalues --    0.80106   0.80513   0.83982   0.85785   0.86501
 Alpha virt. eigenvalues --    0.87164   0.88939   0.91010   0.93097   0.94090
 Alpha virt. eigenvalues --    0.94886   0.95108   0.97215   0.98279   0.98762
 Alpha virt. eigenvalues --    1.00051   1.00498   1.01251   1.02341   1.03370
 Alpha virt. eigenvalues --    1.05109   1.07497   1.08016   1.08845   1.09511
 Alpha virt. eigenvalues --    1.10473   1.12125   1.13633   1.14638   1.16787
 Alpha virt. eigenvalues --    1.17800   1.19875   1.21431   1.23459   1.24284
 Alpha virt. eigenvalues --    1.26193   1.27941   1.30008   1.30842   1.31394
 Alpha virt. eigenvalues --    1.32571   1.35267   1.37007   1.39771   1.40364
 Alpha virt. eigenvalues --    1.43773   1.44464   1.47460   1.48183   1.49871
 Alpha virt. eigenvalues --    1.50978   1.51991   1.53783   1.56493   1.58646
 Alpha virt. eigenvalues --    1.60915   1.64015   1.64743   1.65711   1.68128
 Alpha virt. eigenvalues --    1.70793   1.72863   1.73444   1.76907   1.79614
 Alpha virt. eigenvalues --    1.82204   1.83332   1.85341   1.86181   1.88268
 Alpha virt. eigenvalues --    1.91518   1.92913   1.95880   1.96716   1.98321
 Alpha virt. eigenvalues --    1.99740   2.01129   2.02825   2.03319   2.07585
 Alpha virt. eigenvalues --    2.09935   2.13060   2.14347   2.15781   2.22925
 Alpha virt. eigenvalues --    2.26304   2.32412   2.34671   2.39383   2.42716
 Alpha virt. eigenvalues --    2.49299   2.54279   2.64462   2.65683   2.69012
 Alpha virt. eigenvalues --    2.85354   2.93469   2.97435   3.01207   3.09432
 Alpha virt. eigenvalues --    3.25017   3.27648   3.30111   3.33708   3.36381
 Alpha virt. eigenvalues --    3.39141   3.43467   3.56539   3.60595   3.61783
 Alpha virt. eigenvalues --    3.63053   3.72558   3.74198   3.74927   3.77454
 Alpha virt. eigenvalues --    3.78297   3.80109   3.83715   3.87757   3.89089
 Alpha virt. eigenvalues --    3.98764   3.99784   4.05334   4.06162   4.08478
 Alpha virt. eigenvalues --    4.13319   4.16881   4.17570   4.20908   4.23997
 Alpha virt. eigenvalues --    4.24865   4.30088   4.33806   4.34817   4.36425
 Alpha virt. eigenvalues --    4.37225   4.40064   4.41920   4.44266   4.44995
 Alpha virt. eigenvalues --    4.48728   4.50545   4.52114   4.53837   4.55981
 Alpha virt. eigenvalues --    4.58923   4.62713   4.65698   4.69416   4.78773
 Alpha virt. eigenvalues --    4.80132   4.81871   4.84821   4.87732   4.89576
 Alpha virt. eigenvalues --    4.92874   4.97655   5.04642   5.12127   5.14449
 Alpha virt. eigenvalues --    5.14994   5.17732   5.20511   5.22094   5.27209
 Alpha virt. eigenvalues --    5.29200   5.30568   5.34947   5.36779   5.39047
 Alpha virt. eigenvalues --    5.39753   5.43361   5.49203   5.51101   5.55954
 Alpha virt. eigenvalues --    5.59233   5.63214   5.71196   5.76736   5.90984
 Alpha virt. eigenvalues --    6.07958   6.09146   6.09887   6.12595   6.15704
 Alpha virt. eigenvalues --    6.17858   6.21355   6.31985   6.77831   6.80625
 Alpha virt. eigenvalues --    6.90954   7.00330   7.58582   7.61092   7.65424
 Alpha virt. eigenvalues --    8.01545   8.06886   8.20350  10.37111  17.35703
 Alpha virt. eigenvalues --   53.17491
          Condensed to atoms (all electrons):
 Mulliken charges:
               1
     1  C   -2.046088
     2  H    0.392184
     3  H    0.524920
     4  H    0.481855
     5  H    0.594763
     6  C   -0.002988
     7  H   -0.002086
     8  H    0.008757
     9  H    0.026967
    10  H    0.021716
 Sum of Mulliken charges =  -0.00000
 Mulliken charges with hydrogens summed into heavy atoms:
               1
     1  C   -0.052365
     6  C    0.052365
 Electronic spatial extent (au):  <R**2>=             36.5414
 Charge=             -0.0000 electrons
 Dipole moment (field-independent basis, Debye):
    X=             -0.0001    Y=              0.0000    Z=              0.0002  Tot=              0.0003

 Test job not archived.
 1\1\GINC-CHIMERA-NODE14\SP\RM05\Gen\C2H8\CONNORNM\07-Dec-2018\0\\#T M0
 5/Gen test Massage SCF=(tight,maxcyc=40)\\M05 opt\\0,1\C,0,0.,0.,0.\H,
 0,0.71103547,0.,-0.84877236\H,0,0.13980595,0.9209381,0.59859275\H,0,-1
 .03679835,-0.03475936,-0.38707483\H,0,0.18595693,-0.88617874,0.6372544
 4\C,0,0.,0.,2.73716056\H,0,-0.65322454,0.43797742,3.5165574\H,0,0.4116
 8869,-0.96222118,3.0985866\H,0,-0.58961517,-0.17350316,1.81616297\H,0,
 0.83115102,0.69774693,2.51733527\\Version=AS64L-G09RevD.01\HF=-40.9123
 059\RMSD=6.643e-09\Dipole=-0.0000332,0.0000135,0.0000925\Quadrupole=-0
 .0003109,0.0000907,0.0002202,-0.0001247,0.0000857,0.0001955\PG=C01 [X(
 C2H8)]\\@


 IBM COMPATIBILITY IS LIKE PREGNANCY. YOU ARE OR
 OR YOU ARE NOT. -- ADAM OSBORNE
 Job cpu time:       0 days  0 hours 13 minutes 15.8 seconds.
 File lengths (MBytes):  RWF=     41 Int=      0 D2E=      0 Chk=      4 Scr=      1
 Normal termination of Gaussian 09 at Fri Dec  7 13:57:26 2018.
