 Entering Gaussian System, Link 0=/data/szalewicgrp/connornm/opt/Gaussian/g09-M05-par/g09/g09
 AtFile(1): aug-cc-pVTZ.gbs
 Initial command:
 /data/szalewicgrp/connornm/opt/Gaussian/g09-M05-par/g09/l1.exe "/scratch/local/Gau-30089.inp" -scrdir="/scratch/local/"
 Entering Link 1 = /data/szalewicgrp/connornm/opt/Gaussian/g09-M05-par/g09/l1.exe PID=     30090.
  
 Copyright (c) 1988,1990,1992,1993,1995,1998,2003,2009,2013,
            Gaussian, Inc.  All Rights Reserved.
  
 This is part of the Gaussian(R) 09 program.  It is based on
 the Gaussian(R) 03 system (copyright 2003, Gaussian, Inc.),
 the Gaussian(R) 98 system (copyright 1998, Gaussian, Inc.),
 the Gaussian(R) 94 system (copyright 1995, Gaussian, Inc.),
 the Gaussian 92(TM) system (copyright 1992, Gaussian, Inc.),
 the Gaussian 90(TM) system (copyright 1990, Gaussian, Inc.),
 the Gaussian 88(TM) system (copyright 1988, Gaussian, Inc.),
 the Gaussian 86(TM) system (copyright 1986, Carnegie Mellon
 University), and the Gaussian 82(TM) system (copyright 1983,
 Carnegie Mellon University). Gaussian is a federally registered
 trademark of Gaussian, Inc.
  
 This software contains proprietary and confidential information,
 including trade secrets, belonging to Gaussian, Inc.
  
 This software is provided under written license and may be
 used, copied, transmitted, or stored only in accord with that
 written license.
  
 The following legend is applicable only to US Government
 contracts under FAR:
  
                    RESTRICTED RIGHTS LEGEND
  
 Use, reproduction and disclosure by the US Government is
 subject to restrictions as set forth in subparagraphs (a)
 and (c) of the Commercial Computer Software - Restricted
 Rights clause in FAR 52.227-19.
  
 Gaussian, Inc.
 340 Quinnipiac St., Bldg. 40, Wallingford CT 06492
  
  
 ---------------------------------------------------------------
 Warning -- This program may not be used in any manner that
 competes with the business of Gaussian, Inc. or will provide
 assistance to any competitor of Gaussian, Inc.  The licensee
 of this program is prohibited from giving any competitor of
 Gaussian, Inc. access to this program.  By using this program,
 the user acknowledges that Gaussian, Inc. is engaged in the
 business of creating and licensing software in the field of
 computational chemistry and represents and warrants to the
 licensee that it is not a competitor of Gaussian, Inc. and that
 it will not use this program in any manner prohibited above.
 ---------------------------------------------------------------
  

 Cite this work as:
 Gaussian 09, Revision D.01,
 M. J. Frisch, G. W. Trucks, H. B. Schlegel, G. E. Scuseria, 
 M. A. Robb, J. R. Cheeseman, G. Scalmani, V. Barone, B. Mennucci, 
 G. A. Petersson, H. Nakatsuji, M. Caricato, X. Li, H. P. Hratchian, 
 A. F. Izmaylov, J. Bloino, G. Zheng, J. L. Sonnenberg, M. Hada, 
 M. Ehara, K. Toyota, R. Fukuda, J. Hasegawa, M. Ishida, T. Nakajima, 
 Y. Honda, O. Kitao, H. Nakai, T. Vreven, J. A. Montgomery, Jr., 
 J. E. Peralta, F. Ogliaro, M. Bearpark, J. J. Heyd, E. Brothers, 
 K. N. Kudin, V. N. Staroverov, T. Keith, R. Kobayashi, J. Normand, 
 K. Raghavachari, A. Rendell, J. C. Burant, S. S. Iyengar, J. Tomasi, 
 M. Cossi, N. Rega, J. M. Millam, M. Klene, J. E. Knox, J. B. Cross, 
 V. Bakken, C. Adamo, J. Jaramillo, R. Gomperts, R. E. Stratmann, 
 O. Yazyev, A. J. Austin, R. Cammi, C. Pomelli, J. W. Ochterski, 
 R. L. Martin, K. Morokuma, V. G. Zakrzewski, G. A. Voth, 
 P. Salvador, J. J. Dannenberg, S. Dapprich, A. D. Daniels, 
 O. Farkas, J. B. Foresman, J. V. Ortiz, J. Cioslowski, 
 and D. J. Fox, Gaussian, Inc., Wallingford CT, 2013.
 
 ******************************************
 Gaussian 09:  AS64L-G09RevD.01 24-Apr-2013
                 8-Dec-2018 
 ******************************************
 %Chk=CH400113
 %Mem=2GB
 %NProcShared=16
 Will use up to   16 processors via shared memory.
 ---------------------------------------------
 #T M05/Gen test Massage SCF=(tight,maxcyc=40)
 ---------------------------------------------
 -------
 M05 opt
 -------
 Symbolic Z-matrix:
 Charge =  0 Multiplicity = 1
 6                     0.        0.        0. 
 1                     0.98679   0.       -0.50223 
 1                    -0.77971  -0.31953  -0.71829 
 1                     0.02198  -0.7009    0.85688 
 1                    -0.22905   1.02043   0.36364 
 6-Bq                  0.        0.        2.45637 
 1-Bq                 -0.45366   0.38795   3.38894 
 1-Bq                  1.05864  -0.26508   2.64343 
 1-Bq                 -0.5526   -0.89998   2.12373 
 1-Bq                 -0.05238   0.77712   1.6694 
 
                    Distance matrix (angstroms):
                    1          2          3          4          5
     1  C    0.000000
     2  H    1.107242   0.000000
     3  H    1.107243   1.808119   0.000000
     4  H    1.107242   1.808119   1.808119   0.000000
     5  H    1.107242   1.808119   1.808119   1.808119   0.000000
     6  C    2.456374   3.118832   3.284588   1.746465   2.339502
     7  H    3.441105   4.167327   4.180443   2.796991   3.098852
     8  H    2.859848   3.157634   3.831928   2.111017   2.916874
     9  H    2.371826   3.174171   2.909562   1.405237   2.624990
    10  H    1.842158   2.529776   2.726294   1.688273   1.339929
                    6          7          8          9         10
     6  C    0.000000
     7  H    1.107243   0.000000
     8  H    1.107243   1.808119   0.000000
     9  H    1.107242   1.808119   1.808119   0.000000
    10  H    1.107242   1.808119   1.808119   1.808119   0.000000
 Symmetry turned off by external request.
 This structure is nearly, but not quite of a higher symmetry.
 Consider Symm=Loose if the higher symmetry is desired.
 Framework group  C1[X(C2H8)]
 Deg. of freedom    24
 Rotational constants (GHZ):     76.6916058      9.1963378      9.1963378
   276 basis functions,   360 primitive gaussians,   310 cartesian basis functions
     5 alpha electrons        5 beta electrons
       nuclear repulsion energy        13.2261670227 Hartrees.
 IMHF & INEx in M05                  614413                  385587
 NAtoms=   10 NActive=   10 NUniq=   10 SFac= 1.00D+00 NAtFMM=   60 NAOKFM=F Big=F
 ExpMin= 2.53D-02 ExpMax= 8.24D+03 ExpMxC= 2.81D+02 IAcc=3 IRadAn=         5 AccDes= 0.00D+00
 Harris functional with IExCor= 1009 and IRadAn=       5 diagonalized for initial guess.
 HarFok:  IExCor= 1009 AccDes= 0.00D+00 IRadAn=         5 IDoV= 1 UseB2=F ITyADJ=14
 ICtDFT=  3500011 ScaDFX=  1.000000  1.000000  1.000000  1.000000
 FoFCou: FMM=F IPFlag=           0 FMFlag=      100000 FMFlg1=           0
         NFxFlg=           0 DoJE=T BraDBF=F KetDBF=T FulRan=T
         wScrn=  0.000000 ICntrl=     500 IOpCl=  0 I1Cent=   200000004 NGrid=           0
         NMat0=    1 NMatS0=      1 NMatT0=    0 NMatD0=    1 NMtDS0=    0 NMtDT0=    0
 Symmetry not used in FoFCou.
 SCF Done:  E(RM05) =  -45.9531131386     A.U. after   11 cycles
            NFock= 11  Conv=0.37D-08     -V/T= 2.0328

 **********************************************************************

            Population analysis using the SCF density.

 **********************************************************************

 Alpha  occ. eigenvalues --  -12.07112  -0.99713  -0.71524  -0.71512  -0.71486
 Alpha virt. eigenvalues --   -0.09122  -0.01920  -0.01906  -0.01877  -0.00627
 Alpha virt. eigenvalues --   -0.00564  -0.00505   0.03235   0.03852   0.04274
 Alpha virt. eigenvalues --    0.05799   0.06125   0.06650   0.07187   0.07630
 Alpha virt. eigenvalues --    0.08199   0.09610   0.11301   0.12588   0.14035
 Alpha virt. eigenvalues --    0.15013   0.17583   0.18291   0.19789   0.20650
 Alpha virt. eigenvalues --    0.21069   0.21600   0.22615   0.23569   0.23947
 Alpha virt. eigenvalues --    0.24099   0.24467   0.25339   0.25816   0.27375
 Alpha virt. eigenvalues --    0.28748   0.29898   0.30318   0.31633   0.31879
 Alpha virt. eigenvalues --    0.33696   0.34300   0.36159   0.37077   0.38588
 Alpha virt. eigenvalues --    0.39552   0.40616   0.41704   0.42791   0.43161
 Alpha virt. eigenvalues --    0.43471   0.44369   0.45581   0.47404   0.49185
 Alpha virt. eigenvalues --    0.50487   0.51356   0.53001   0.53760   0.56544
 Alpha virt. eigenvalues --    0.57314   0.58056   0.59464   0.59851   0.60902
 Alpha virt. eigenvalues --    0.62193   0.62630   0.63609   0.64975   0.66450
 Alpha virt. eigenvalues --    0.67618   0.69687   0.71341   0.73710   0.75590
 Alpha virt. eigenvalues --    0.77014   0.79587   0.80004   0.81116   0.81892
 Alpha virt. eigenvalues --    0.84279   0.84937   0.85768   0.87324   0.87929
 Alpha virt. eigenvalues --    0.89761   0.91996   0.92635   0.94307   0.96397
 Alpha virt. eigenvalues --    0.97271   0.98667   1.00138   1.01293   1.02083
 Alpha virt. eigenvalues --    1.03058   1.03865   1.06388   1.07631   1.09518
 Alpha virt. eigenvalues --    1.10127   1.12244   1.14759   1.15779   1.16828
 Alpha virt. eigenvalues --    1.18544   1.20640   1.21408   1.23306   1.23856
 Alpha virt. eigenvalues --    1.26081   1.26796   1.27069   1.28591   1.30394
 Alpha virt. eigenvalues --    1.30593   1.32198   1.34006   1.36205   1.38287
 Alpha virt. eigenvalues --    1.39372   1.43359   1.46427   1.47154   1.49068
 Alpha virt. eigenvalues --    1.51746   1.52279   1.53703   1.58010   1.58817
 Alpha virt. eigenvalues --    1.59226   1.62831   1.64977   1.66446   1.69369
 Alpha virt. eigenvalues --    1.71481   1.71954   1.74263   1.77335   1.78108
 Alpha virt. eigenvalues --    1.81270   1.84384   1.85868   1.86108   1.87031
 Alpha virt. eigenvalues --    1.88628   1.93155   1.95777   1.97944   2.01521
 Alpha virt. eigenvalues --    2.01923   2.05653   2.08097   2.09896   2.11853
 Alpha virt. eigenvalues --    2.13716   2.24698   2.29639   2.32647   2.36623
 Alpha virt. eigenvalues --    2.37648   2.42710   2.50537   2.57092   2.59319
 Alpha virt. eigenvalues --    2.62434   2.64395   2.73565   2.80712   2.87737
 Alpha virt. eigenvalues --    3.04340   3.05192   3.08817   3.11025   3.16289
 Alpha virt. eigenvalues --    3.22424   3.24326   3.25689   3.26869   3.32859
 Alpha virt. eigenvalues --    3.43045   3.47945   3.49389   3.51902   3.52895
 Alpha virt. eigenvalues --    3.56363   3.59860   3.62847   3.64446   3.67972
 Alpha virt. eigenvalues --    3.77707   3.79684   3.85381   3.89489   3.93476
 Alpha virt. eigenvalues --    3.94761   3.96499   4.02955   4.03798   4.05421
 Alpha virt. eigenvalues --    4.06792   4.09572   4.10842   4.13437   4.15507
 Alpha virt. eigenvalues --    4.17627   4.23104   4.24967   4.29478   4.30952
 Alpha virt. eigenvalues --    4.34191   4.39297   4.41026   4.41997   4.47026
 Alpha virt. eigenvalues --    4.48621   4.50770   4.53809   4.57474   4.57837
 Alpha virt. eigenvalues --    4.60641   4.64171   4.69279   4.73721   4.77504
 Alpha virt. eigenvalues --    4.79544   4.83686   4.84838   4.90854   4.94017
 Alpha virt. eigenvalues --    4.98536   5.02365   5.02699   5.08353   5.12821
 Alpha virt. eigenvalues --    5.14082   5.16928   5.21850   5.24104   5.25339
 Alpha virt. eigenvalues --    5.27713   5.31074   5.37843   5.41152   5.50422
 Alpha virt. eigenvalues --    5.52726   5.56276   5.61511   5.66338   5.67629
 Alpha virt. eigenvalues --    5.72935   5.77031   5.90307   5.99792   6.05785
 Alpha virt. eigenvalues --    6.07715   6.17837   6.29947   6.74003   6.80449
 Alpha virt. eigenvalues --    6.84955   6.87672   7.41530   7.53070   7.63068
 Alpha virt. eigenvalues --    7.96753   8.02490   8.10030  10.45849  16.07171
 Alpha virt. eigenvalues --   54.28202
          Condensed to atoms (all electrons):
 Mulliken charges:
               1
     1  C    0.205382
     2  H   -0.322112
     3  H   -0.533281
     4  H    0.869073
     5  H    0.226471
     6  C   -0.034787
     7  H   -0.014149
     8  H   -0.003790
     9  H    0.103615
    10  H   -0.496423
 Sum of Mulliken charges =  -0.00000
 Mulliken charges with hydrogens summed into heavy atoms:
               1
     1  C    0.445533
     6  C   -0.445533
 Electronic spatial extent (au):  <R**2>=             35.5808
 Charge=             -0.0000 electrons
 Dipole moment (field-independent basis, Debye):
    X=             -0.0009    Y=              0.0010    Z=             -0.0010  Tot=              0.0017

 Test job not archived.
 1\1\GINC-CHIMERA-NODE14\SP\RM05\Gen\C2H8\CONNORNM\08-Dec-2018\0\\#T M0
 5/Gen test Massage SCF=(tight,maxcyc=40)\\M05 opt\\0,1\C,0,0.,0.,0.\H,
 0,0.9867858,0.,-0.50223474\H,0,-0.77971321,-0.3195296,-0.71828553\H,0,
 0.02198162,-0.70090331,0.85687648\H,0,-0.22905421,1.02043291,0.3636437
 8\C,0,0.,0.,2.45637412\H,0,-0.4536635,0.38794621,3.38893679\H,0,1.0586
 437,-0.2650823,2.64343254\H,0,-0.55260045,-0.89998108,2.12372904\H,0,-
 0.05237975,0.77711717,1.66939813\\Version=AS64L-G09RevD.01\HF=-45.9531
 131\RMSD=3.656e-09\Dipole=-0.0003737,0.0003779,-0.0003992\Quadrupole=-
 0.0007983,0.0005232,0.0002751,-0.0004096,0.0000723,0.0011929\PG=C01 [X
 (C2H8)]\\@


 REFRAIN FROM ILLUSIONS, INSIST ON WORK AND NOT WORDS,
 PATIENTLY SEEK DIVINE AND SCIENTIFIC TRUTH.
 LAST WORDS OF MARIA MENDELEEVA TO HER SON DMITRI, C. 1850
 Job cpu time:       0 days  0 hours 20 minutes 49.8 seconds.
 File lengths (MBytes):  RWF=     41 Int=      0 D2E=      0 Chk=      4 Scr=      1
 Normal termination of Gaussian 09 at Sat Dec  8 15:18:35 2018.
