 Entering Gaussian System, Link 0=/data/szalewicgrp/connornm/opt/Gaussian/g09-M05-par/g09/g09
 AtFile(1): aug-cc-pVTZ.gbs
 Initial command:
 /data/szalewicgrp/connornm/opt/Gaussian/g09-M05-par/g09/l1.exe "/scratch/local/Gau-20225.inp" -scrdir="/scratch/local/"
 Entering Link 1 = /data/szalewicgrp/connornm/opt/Gaussian/g09-M05-par/g09/l1.exe PID=     20226.
  
 Copyright (c) 1988,1990,1992,1993,1995,1998,2003,2009,2013,
            Gaussian, Inc.  All Rights Reserved.
  
 This is part of the Gaussian(R) 09 program.  It is based on
 the Gaussian(R) 03 system (copyright 2003, Gaussian, Inc.),
 the Gaussian(R) 98 system (copyright 1998, Gaussian, Inc.),
 the Gaussian(R) 94 system (copyright 1995, Gaussian, Inc.),
 the Gaussian 92(TM) system (copyright 1992, Gaussian, Inc.),
 the Gaussian 90(TM) system (copyright 1990, Gaussian, Inc.),
 the Gaussian 88(TM) system (copyright 1988, Gaussian, Inc.),
 the Gaussian 86(TM) system (copyright 1986, Carnegie Mellon
 University), and the Gaussian 82(TM) system (copyright 1983,
 Carnegie Mellon University). Gaussian is a federally registered
 trademark of Gaussian, Inc.
  
 This software contains proprietary and confidential information,
 including trade secrets, belonging to Gaussian, Inc.
  
 This software is provided under written license and may be
 used, copied, transmitted, or stored only in accord with that
 written license.
  
 The following legend is applicable only to US Government
 contracts under FAR:
  
                    RESTRICTED RIGHTS LEGEND
  
 Use, reproduction and disclosure by the US Government is
 subject to restrictions as set forth in subparagraphs (a)
 and (c) of the Commercial Computer Software - Restricted
 Rights clause in FAR 52.227-19.
  
 Gaussian, Inc.
 340 Quinnipiac St., Bldg. 40, Wallingford CT 06492
  
  
 ---------------------------------------------------------------
 Warning -- This program may not be used in any manner that
 competes with the business of Gaussian, Inc. or will provide
 assistance to any competitor of Gaussian, Inc.  The licensee
 of this program is prohibited from giving any competitor of
 Gaussian, Inc. access to this program.  By using this program,
 the user acknowledges that Gaussian, Inc. is engaged in the
 business of creating and licensing software in the field of
 computational chemistry and represents and warrants to the
 licensee that it is not a competitor of Gaussian, Inc. and that
 it will not use this program in any manner prohibited above.
 ---------------------------------------------------------------
  

 Cite this work as:
 Gaussian 09, Revision D.01,
 M. J. Frisch, G. W. Trucks, H. B. Schlegel, G. E. Scuseria, 
 M. A. Robb, J. R. Cheeseman, G. Scalmani, V. Barone, B. Mennucci, 
 G. A. Petersson, H. Nakatsuji, M. Caricato, X. Li, H. P. Hratchian, 
 A. F. Izmaylov, J. Bloino, G. Zheng, J. L. Sonnenberg, M. Hada, 
 M. Ehara, K. Toyota, R. Fukuda, J. Hasegawa, M. Ishida, T. Nakajima, 
 Y. Honda, O. Kitao, H. Nakai, T. Vreven, J. A. Montgomery, Jr., 
 J. E. Peralta, F. Ogliaro, M. Bearpark, J. J. Heyd, E. Brothers, 
 K. N. Kudin, V. N. Staroverov, T. Keith, R. Kobayashi, J. Normand, 
 K. Raghavachari, A. Rendell, J. C. Burant, S. S. Iyengar, J. Tomasi, 
 M. Cossi, N. Rega, J. M. Millam, M. Klene, J. E. Knox, J. B. Cross, 
 V. Bakken, C. Adamo, J. Jaramillo, R. Gomperts, R. E. Stratmann, 
 O. Yazyev, A. J. Austin, R. Cammi, C. Pomelli, J. W. Ochterski, 
 R. L. Martin, K. Morokuma, V. G. Zakrzewski, G. A. Voth, 
 P. Salvador, J. J. Dannenberg, S. Dapprich, A. D. Daniels, 
 O. Farkas, J. B. Foresman, J. V. Ortiz, J. Cioslowski, 
 and D. J. Fox, Gaussian, Inc., Wallingford CT, 2013.
 
 ******************************************
 Gaussian 09:  AS64L-G09RevD.01 24-Apr-2013
                 8-Dec-2018 
 ******************************************
 %Chk=CH400280
 %Mem=2GB
 %NProcShared=16
 Will use up to   16 processors via shared memory.
 ---------------------------------------------
 #T M05/Gen test Massage SCF=(tight,maxcyc=40)
 ---------------------------------------------
 -------
 M05 opt
 -------
 Symbolic Z-matrix:
 Charge =  0 Multiplicity = 1
 6                     0.        0.        0. 
 1                     0.74541   0.        0.81875 
 1                     0.06392   0.95462  -0.55732 
 1                     0.20666  -0.84317  -0.68727 
 1                    -1.01598  -0.11145   0.42584 
 6-Bq                  0.        0.        3.89606 
 1-Bq                  0.74432  -0.00459   4.71579 
 1-Bq                  0.10699  -0.92385   3.2952 
 1-Bq                 -1.02014   0.04582   4.32408 
 1-Bq                  0.16883   0.88262   3.24917 
 
                    Distance matrix (angstroms):
                    1          2          3          4          5
     1  C    0.000000
     2  H    1.107242   0.000000
     3  H    1.107243   1.808119   0.000000
     4  H    1.107243   1.808119   1.808119   0.000000
     5  H    1.107242   1.808119   1.808119   1.808119   0.000000
     6  C    3.896060   3.166301   4.554996   4.664824   3.617602
     7  H    4.774168   3.897039   5.402657   5.494119   4.638286
     8  H    3.423929   2.719168   4.286306   3.984536   3.186577
     9  H    4.443023   3.925123   5.082241   5.235360   3.901409
    10  H    3.371151   2.649231   3.808622   4.298303   3.219184
                    6          7          8          9         10
     6  C    0.000000
     7  H    1.107242   0.000000
     8  H    1.107243   1.808119   0.000000
     9  H    1.107243   1.808119   1.808119   0.000000
    10  H    1.107243   1.808119   1.808119   1.808119   0.000000
 Symmetry turned off by external request.
 This structure is nearly, but not quite of a higher symmetry.
 Consider Symm=Loose if the higher symmetry is desired.
 Framework group  C1[X(C2H8)]
 Deg. of freedom    24
 Rotational constants (GHZ):     76.6916058      3.9402212      3.9402212
   276 basis functions,   360 primitive gaussians,   310 cartesian basis functions
     5 alpha electrons        5 beta electrons
       nuclear repulsion energy        13.2261670097 Hartrees.
 IMHF & INEx in M05                  614413                  385587
 NAtoms=   10 NActive=   10 NUniq=   10 SFac= 1.00D+00 NAtFMM=   60 NAOKFM=F Big=F
 ExpMin= 2.53D-02 ExpMax= 8.24D+03 ExpMxC= 2.81D+02 IAcc=3 IRadAn=         5 AccDes= 0.00D+00
 Harris functional with IExCor= 1009 and IRadAn=       5 diagonalized for initial guess.
 HarFok:  IExCor= 1009 AccDes= 0.00D+00 IRadAn=         5 IDoV= 1 UseB2=F ITyADJ=14
 ICtDFT=  3500011 ScaDFX=  1.000000  1.000000  1.000000  1.000000
 FoFCou: FMM=F IPFlag=           0 FMFlag=      100000 FMFlg1=           0
         NFxFlg=           0 DoJE=T BraDBF=F KetDBF=T FulRan=T
         wScrn=  0.000000 ICntrl=     500 IOpCl=  0 I1Cent=   200000004 NGrid=           0
         NMat0=    1 NMatS0=      1 NMatT0=    0 NMatD0=    1 NMtDS0=    0 NMtDT0=    0
 Symmetry not used in FoFCou.
 SCF Done:  E(RM05) =  -45.8797117212     A.U. after   10 cycles
            NFock= 10  Conv=0.36D-08     -V/T= 2.0335

 **********************************************************************

            Population analysis using the SCF density.

 **********************************************************************

 Alpha  occ. eigenvalues --  -12.05207  -0.99433  -0.71144  -0.71143  -0.71142
 Alpha virt. eigenvalues --   -0.08962  -0.01740  -0.01735  -0.01731  -0.00498
 Alpha virt. eigenvalues --   -0.00418  -0.00309   0.02936   0.04157   0.04849
 Alpha virt. eigenvalues --    0.05145   0.05808   0.06450   0.07259   0.07804
 Alpha virt. eigenvalues --    0.07999   0.08811   0.10882   0.11971   0.12174
 Alpha virt. eigenvalues --    0.15346   0.16675   0.19204   0.19444   0.20412
 Alpha virt. eigenvalues --    0.20803   0.21567   0.21817   0.22457   0.22984
 Alpha virt. eigenvalues --    0.24273   0.24811   0.25327   0.25563   0.25848
 Alpha virt. eigenvalues --    0.26634   0.27206   0.28061   0.28963   0.30590
 Alpha virt. eigenvalues --    0.32838   0.33448   0.34898   0.35186   0.36073
 Alpha virt. eigenvalues --    0.36822   0.37325   0.37986   0.40300   0.41217
 Alpha virt. eigenvalues --    0.41859   0.42402   0.44725   0.47007   0.47423
 Alpha virt. eigenvalues --    0.48017   0.50324   0.51837   0.52124   0.54836
 Alpha virt. eigenvalues --    0.55807   0.56487   0.57662   0.58182   0.59609
 Alpha virt. eigenvalues --    0.60518   0.63239   0.64418   0.64603   0.65226
 Alpha virt. eigenvalues --    0.66974   0.67706   0.70748   0.71524   0.72930
 Alpha virt. eigenvalues --    0.73309   0.74347   0.75983   0.77440   0.79063
 Alpha virt. eigenvalues --    0.80452   0.83021   0.83502   0.84628   0.87207
 Alpha virt. eigenvalues --    0.90236   0.91214   0.92109   0.92714   0.93378
 Alpha virt. eigenvalues --    0.94307   0.95564   0.96648   0.98192   0.98651
 Alpha virt. eigenvalues --    0.99627   1.00443   1.02773   1.04422   1.05661
 Alpha virt. eigenvalues --    1.06614   1.07326   1.08681   1.09262   1.09962
 Alpha virt. eigenvalues --    1.11774   1.14057   1.16936   1.19430   1.20399
 Alpha virt. eigenvalues --    1.21615   1.22156   1.23049   1.24274   1.25021
 Alpha virt. eigenvalues --    1.25987   1.26865   1.29077   1.30671   1.31526
 Alpha virt. eigenvalues --    1.32527   1.34738   1.36797   1.37243   1.37971
 Alpha virt. eigenvalues --    1.38351   1.40639   1.41011   1.42258   1.46503
 Alpha virt. eigenvalues --    1.48388   1.48897   1.49854   1.52745   1.59335
 Alpha virt. eigenvalues --    1.60672   1.63002   1.69079   1.70574   1.70714
 Alpha virt. eigenvalues --    1.73541   1.76695   1.78209   1.80075   1.84604
 Alpha virt. eigenvalues --    1.86184   1.88089   1.91371   1.93735   1.96966
 Alpha virt. eigenvalues --    2.00860   2.01541   2.03201   2.06544   2.07879
 Alpha virt. eigenvalues --    2.11183   2.12802   2.24717   2.29050   2.29945
 Alpha virt. eigenvalues --    2.30910   2.42855   2.47186   2.50574   2.51969
 Alpha virt. eigenvalues --    2.54270   2.67742   2.68399   2.69191   2.81265
 Alpha virt. eigenvalues --    2.99001   2.99302   3.00553   3.00651   3.04826
 Alpha virt. eigenvalues --    3.06235   3.08414   3.15015   3.22496   3.22984
 Alpha virt. eigenvalues --    3.23785   3.44081   3.45765   3.46827   3.47563
 Alpha virt. eigenvalues --    3.51436   3.51843   3.52276   3.56139   3.58587
 Alpha virt. eigenvalues --    3.67360   3.91172   3.91583   3.92087   3.97865
 Alpha virt. eigenvalues --    3.99626   4.01527   4.02650   4.02879   4.04474
 Alpha virt. eigenvalues --    4.05491   4.05855   4.06837   4.09652   4.14974
 Alpha virt. eigenvalues --    4.16289   4.18287   4.18680   4.22333   4.25907
 Alpha virt. eigenvalues --    4.29540   4.35665   4.36525   4.38176   4.43526
 Alpha virt. eigenvalues --    4.45707   4.46624   4.47139   4.48118   4.49148
 Alpha virt. eigenvalues --    4.51967   4.58494   4.59815   4.62272   4.64008
 Alpha virt. eigenvalues --    4.76922   4.82267   4.89014   4.89932   4.91274
 Alpha virt. eigenvalues --    4.92259   4.94082   4.96555   5.02302   5.03299
 Alpha virt. eigenvalues --    5.12424   5.14806   5.15796   5.16481   5.17313
 Alpha virt. eigenvalues --    5.18702   5.28583   5.29183   5.32732   5.39817
 Alpha virt. eigenvalues --    5.43623   5.47003   5.47394   5.48584   5.51746
 Alpha virt. eigenvalues --    5.62647   5.63757   5.67028   6.13821   6.14084
 Alpha virt. eigenvalues --    6.16810   6.23460   6.23611   6.80458   6.81552
 Alpha virt. eigenvalues --    6.83861   6.98317   7.64519   7.67098   7.68126
 Alpha virt. eigenvalues --    8.02749   8.06395   8.07681  10.27241  14.93702
 Alpha virt. eigenvalues --   52.25940
          Condensed to atoms (all electrons):
 Mulliken charges:
               1
     1  C    0.392197
     2  H    0.123870
     3  H   -0.196956
     4  H   -0.245133
     5  H   -0.094862
     6  C    0.018551
     7  H    0.001958
     8  H    0.000186
     9  H    0.001550
    10  H   -0.001361
 Sum of Mulliken charges =  -0.00000
 Mulliken charges with hydrogens summed into heavy atoms:
               1
     1  C   -0.020884
     6  C    0.020884
 Electronic spatial extent (au):  <R**2>=             35.5903
 Charge=             -0.0000 electrons
 Dipole moment (field-independent basis, Debye):
    X=             -0.0001    Y=              0.0001    Z=             -0.0013  Tot=              0.0013

 Test job not archived.
 1\1\GINC-CHIMERA-NODE53\SP\RM05\Gen\C2H8\CONNORNM\08-Dec-2018\0\\#T M0
 5/Gen test Massage SCF=(tight,maxcyc=40)\\M05 opt\\0,1\C,0,0.,0.,0.\H,
 0,0.74540773,0.,0.81875104\H,0,0.06391938,0.95461638,-0.55732202\H,0,0
 .20665648,-0.8431697,-0.68727281\H,0,-1.01598359,-0.11144668,0.4258437
 9\C,0,0.,0.,3.89606002\H,0,0.74432026,-0.00459402,4.71578692\H,0,0.106
 99136,-0.92385319,3.29519889\H,0,-1.02013979,0.04582487,4.3240797\H,0,
 0.16882816,0.88262234,3.24917455\\Version=AS64L-G09RevD.01\HF=-45.8797
 117\RMSD=3.628e-09\Dipole=-0.0000232,0.0000562,-0.0005124\Quadrupole=-
 0.000271,0.000112,0.0001589,-0.0001382,-0.0006476,0.0002641\PG=C01 [X(
 C2H8)]\\@


 DEMOCRATS BUY MOST OF THE BOOKS THAT HAVE BEEN
 BANNED; REPUBLICANS FORM CENSORSHIP COMMITTEES AND
 READ THEM AS A GROUP.
 Job cpu time:       0 days  0 hours 16 minutes  2.0 seconds.
 File lengths (MBytes):  RWF=     41 Int=      0 D2E=      0 Chk=      4 Scr=      1
 Normal termination of Gaussian 09 at Sat Dec  8 13:53:58 2018.
