 Entering Gaussian System, Link 0=/data/szalewicgrp/connornm/opt/Gaussian/g09-M05-par/g09/g09
 AtFile(1): aug-cc-pVTZ.gbs
 Initial command:
 /data/szalewicgrp/connornm/opt/Gaussian/g09-M05-par/g09/l1.exe "/scratch/local/Gau-9714.inp" -scrdir="/scratch/local/"
 Entering Link 1 = /data/szalewicgrp/connornm/opt/Gaussian/g09-M05-par/g09/l1.exe PID=      9715.
  
 Copyright (c) 1988,1990,1992,1993,1995,1998,2003,2009,2013,
            Gaussian, Inc.  All Rights Reserved.
  
 This is part of the Gaussian(R) 09 program.  It is based on
 the Gaussian(R) 03 system (copyright 2003, Gaussian, Inc.),
 the Gaussian(R) 98 system (copyright 1998, Gaussian, Inc.),
 the Gaussian(R) 94 system (copyright 1995, Gaussian, Inc.),
 the Gaussian 92(TM) system (copyright 1992, Gaussian, Inc.),
 the Gaussian 90(TM) system (copyright 1990, Gaussian, Inc.),
 the Gaussian 88(TM) system (copyright 1988, Gaussian, Inc.),
 the Gaussian 86(TM) system (copyright 1986, Carnegie Mellon
 University), and the Gaussian 82(TM) system (copyright 1983,
 Carnegie Mellon University). Gaussian is a federally registered
 trademark of Gaussian, Inc.
  
 This software contains proprietary and confidential information,
 including trade secrets, belonging to Gaussian, Inc.
  
 This software is provided under written license and may be
 used, copied, transmitted, or stored only in accord with that
 written license.
  
 The following legend is applicable only to US Government
 contracts under FAR:
  
                    RESTRICTED RIGHTS LEGEND
  
 Use, reproduction and disclosure by the US Government is
 subject to restrictions as set forth in subparagraphs (a)
 and (c) of the Commercial Computer Software - Restricted
 Rights clause in FAR 52.227-19.
  
 Gaussian, Inc.
 340 Quinnipiac St., Bldg. 40, Wallingford CT 06492
  
  
 ---------------------------------------------------------------
 Warning -- This program may not be used in any manner that
 competes with the business of Gaussian, Inc. or will provide
 assistance to any competitor of Gaussian, Inc.  The licensee
 of this program is prohibited from giving any competitor of
 Gaussian, Inc. access to this program.  By using this program,
 the user acknowledges that Gaussian, Inc. is engaged in the
 business of creating and licensing software in the field of
 computational chemistry and represents and warrants to the
 licensee that it is not a competitor of Gaussian, Inc. and that
 it will not use this program in any manner prohibited above.
 ---------------------------------------------------------------
  

 Cite this work as:
 Gaussian 09, Revision D.01,
 M. J. Frisch, G. W. Trucks, H. B. Schlegel, G. E. Scuseria, 
 M. A. Robb, J. R. Cheeseman, G. Scalmani, V. Barone, B. Mennucci, 
 G. A. Petersson, H. Nakatsuji, M. Caricato, X. Li, H. P. Hratchian, 
 A. F. Izmaylov, J. Bloino, G. Zheng, J. L. Sonnenberg, M. Hada, 
 M. Ehara, K. Toyota, R. Fukuda, J. Hasegawa, M. Ishida, T. Nakajima, 
 Y. Honda, O. Kitao, H. Nakai, T. Vreven, J. A. Montgomery, Jr., 
 J. E. Peralta, F. Ogliaro, M. Bearpark, J. J. Heyd, E. Brothers, 
 K. N. Kudin, V. N. Staroverov, T. Keith, R. Kobayashi, J. Normand, 
 K. Raghavachari, A. Rendell, J. C. Burant, S. S. Iyengar, J. Tomasi, 
 M. Cossi, N. Rega, J. M. Millam, M. Klene, J. E. Knox, J. B. Cross, 
 V. Bakken, C. Adamo, J. Jaramillo, R. Gomperts, R. E. Stratmann, 
 O. Yazyev, A. J. Austin, R. Cammi, C. Pomelli, J. W. Ochterski, 
 R. L. Martin, K. Morokuma, V. G. Zakrzewski, G. A. Voth, 
 P. Salvador, J. J. Dannenberg, S. Dapprich, A. D. Daniels, 
 O. Farkas, J. B. Foresman, J. V. Ortiz, J. Cioslowski, 
 and D. J. Fox, Gaussian, Inc., Wallingford CT, 2013.
 
 ******************************************
 Gaussian 09:  AS64L-G09RevD.01 24-Apr-2013
                 7-Dec-2018 
 ******************************************
 %Chk=CH400038
 %Mem=2GB
 %NProcShared=16
 Will use up to   16 processors via shared memory.
 ---------------------------------------------
 #T M05/Gen test Massage SCF=(tight,maxcyc=40)
 ---------------------------------------------
 -------
 M05 opt
 -------
 Symbolic Z-matrix:
 Charge =  0 Multiplicity = 1
 6                     0.        0.        0. 
 1                     0.42799   0.       -1.02118 
 1                     0.3617   -0.88921   0.55178 
 1                     0.31538   0.91821   0.53237 
 1                    -1.10507  -0.02899  -0.06297 
 6-Bq                  0.        0.        3.30972 
 1-Bq                  0.4837    0.64938   2.55453 
 1-Bq                 -0.06096   0.53879   4.27511 
 1-Bq                 -1.01995  -0.26487   2.96983 
 1-Bq                  0.59722  -0.92331   3.43943 
 
                    Distance matrix (angstroms):
                    1          2          3          4          5
     1  C    0.000000
     2  H    1.107243   0.000000
     3  H    1.107242   1.808119   0.000000
     4  H    1.107242   1.808119   1.808119   0.000000
     5  H    1.107242   1.808119   1.808119   1.808119   0.000000
     6  C    3.309725   4.352000   2.920237   2.942156   3.549236
     7  H    2.679787   3.634620   2.528469   2.046880   3.136183
     8  H    4.309361   5.346033   4.010117   3.780703   4.497943
     9  H    3.151248   4.253808   2.854074   3.020599   3.043150
    10  H    3.610932   4.558306   2.897438   3.452769   3.995542
                    6          7          8          9         10
     6  C    0.000000
     7  H    1.107242   0.000000
     8  H    1.107243   1.808119   0.000000
     9  H    1.107243   1.808119   1.808119   0.000000
    10  H    1.107242   1.808119   1.808119   1.808119   0.000000
 Symmetry turned off by external request.
 This structure is nearly, but not quite of a higher symmetry.
 Consider Symm=Loose if the higher symmetry is desired.
 Framework group  C1[X(C2H8)]
 Deg. of freedom    24
 Rotational constants (GHZ):     76.6916058      5.3538516      5.3538516
   276 basis functions,   360 primitive gaussians,   310 cartesian basis functions
     5 alpha electrons        5 beta electrons
       nuclear repulsion energy        13.2261670322 Hartrees.
 IMHF & INEx in M05                  614413                  385587
 NAtoms=   10 NActive=   10 NUniq=   10 SFac= 1.00D+00 NAtFMM=   60 NAOKFM=F Big=F
 ExpMin= 2.53D-02 ExpMax= 8.24D+03 ExpMxC= 2.81D+02 IAcc=3 IRadAn=         5 AccDes= 0.00D+00
 Harris functional with IExCor= 1009 and IRadAn=       5 diagonalized for initial guess.
 HarFok:  IExCor= 1009 AccDes= 0.00D+00 IRadAn=         5 IDoV= 1 UseB2=F ITyADJ=14
 ICtDFT=  3500011 ScaDFX=  1.000000  1.000000  1.000000  1.000000
 FoFCou: FMM=F IPFlag=           0 FMFlag=      100000 FMFlg1=           0
         NFxFlg=           0 DoJE=T BraDBF=F KetDBF=T FulRan=T
         wScrn=  0.000000 ICntrl=     500 IOpCl=  0 I1Cent=   200000004 NGrid=           0
         NMat0=    1 NMatS0=      1 NMatT0=    0 NMatD0=    1 NMtDS0=    0 NMtDT0=    0
 Symmetry not used in FoFCou.
 SCF Done:  E(RM05) =  -45.8800742772     A.U. after   10 cycles
            NFock= 10  Conv=0.45D-08     -V/T= 2.0334

 **********************************************************************

            Population analysis using the SCF density.

 **********************************************************************

 Alpha  occ. eigenvalues --  -12.05215  -0.99437  -0.71149  -0.71147  -0.71144
 Alpha virt. eigenvalues --   -0.08959  -0.01741  -0.01733  -0.01726  -0.00564
 Alpha virt. eigenvalues --   -0.00333  -0.00263   0.03231   0.03740   0.04824
 Alpha virt. eigenvalues --    0.05237   0.05890   0.06471   0.07184   0.08061
 Alpha virt. eigenvalues --    0.08418   0.09562   0.11190   0.12422   0.12917
 Alpha virt. eigenvalues --    0.15771   0.16516   0.18673   0.19795   0.19903
 Alpha virt. eigenvalues --    0.20213   0.21437   0.21820   0.22115   0.23625
 Alpha virt. eigenvalues --    0.24292   0.24918   0.25394   0.26276   0.26824
 Alpha virt. eigenvalues --    0.26951   0.28101   0.29090   0.30893   0.31524
 Alpha virt. eigenvalues --    0.32813   0.34207   0.34483   0.35114   0.35637
 Alpha virt. eigenvalues --    0.37459   0.38768   0.39555   0.41017   0.41640
 Alpha virt. eigenvalues --    0.43205   0.43652   0.45508   0.46596   0.47847
 Alpha virt. eigenvalues --    0.50825   0.51809   0.52195   0.52896   0.54991
 Alpha virt. eigenvalues --    0.55095   0.57090   0.57436   0.58514   0.60223
 Alpha virt. eigenvalues --    0.62555   0.63350   0.64633   0.65362   0.66123
 Alpha virt. eigenvalues --    0.66862   0.68516   0.70501   0.71621   0.73248
 Alpha virt. eigenvalues --    0.74139   0.75359   0.75920   0.77742   0.79294
 Alpha virt. eigenvalues --    0.81044   0.81610   0.85355   0.87560   0.87820
 Alpha virt. eigenvalues --    0.88942   0.90469   0.91377   0.92556   0.93290
 Alpha virt. eigenvalues --    0.94753   0.96063   0.97649   0.99248   0.99837
 Alpha virt. eigenvalues --    1.01457   1.02073   1.02724   1.05187   1.05429
 Alpha virt. eigenvalues --    1.06993   1.07582   1.11642   1.12625   1.14101
 Alpha virt. eigenvalues --    1.15238   1.16279   1.17121   1.19208   1.20534
 Alpha virt. eigenvalues --    1.22333   1.22648   1.24482   1.25912   1.26162
 Alpha virt. eigenvalues --    1.27973   1.28176   1.30169   1.31172   1.32705
 Alpha virt. eigenvalues --    1.35477   1.37632   1.38019   1.39060   1.40891
 Alpha virt. eigenvalues --    1.42413   1.43271   1.45944   1.47811   1.48671
 Alpha virt. eigenvalues --    1.49980   1.52692   1.54869   1.57837   1.59198
 Alpha virt. eigenvalues --    1.61529   1.66891   1.70591   1.71501   1.73608
 Alpha virt. eigenvalues --    1.75136   1.76316   1.81584   1.82547   1.83434
 Alpha virt. eigenvalues --    1.86370   1.88878   1.92674   1.95530   1.96993
 Alpha virt. eigenvalues --    1.99791   2.00329   2.04309   2.06020   2.07491
 Alpha virt. eigenvalues --    2.12000   2.16206   2.27307   2.29284   2.33566
 Alpha virt. eigenvalues --    2.41326   2.44364   2.50528   2.52614   2.55310
 Alpha virt. eigenvalues --    2.57408   2.66867   2.69189   2.70169   2.85143
 Alpha virt. eigenvalues --    3.00137   3.01696   3.04218   3.07419   3.09101
 Alpha virt. eigenvalues --    3.10603   3.12643   3.16156   3.23096   3.24055
 Alpha virt. eigenvalues --    3.26078   3.45384   3.46290   3.48173   3.49612
 Alpha virt. eigenvalues --    3.50781   3.54232   3.57645   3.58954   3.60248
 Alpha virt. eigenvalues --    3.78003   3.91482   3.91794   3.92560   3.97608
 Alpha virt. eigenvalues --    3.99388   4.01645   4.02044   4.03904   4.05089
 Alpha virt. eigenvalues --    4.06324   4.07937   4.10183   4.11395   4.16107
 Alpha virt. eigenvalues --    4.18577   4.20261   4.23471   4.24410   4.27749
 Alpha virt. eigenvalues --    4.33160   4.35870   4.36262   4.38828   4.45809
 Alpha virt. eigenvalues --    4.46174   4.47766   4.48753   4.51021   4.51459
 Alpha virt. eigenvalues --    4.56483   4.57987   4.60107   4.62857   4.67676
 Alpha virt. eigenvalues --    4.78321   4.84546   4.89735   4.90106   4.90674
 Alpha virt. eigenvalues --    4.92024   4.93737   4.94468   5.03035   5.03572
 Alpha virt. eigenvalues --    5.10642   5.13794   5.16953   5.19534   5.19642
 Alpha virt. eigenvalues --    5.22707   5.27273   5.30295   5.30412   5.39785
 Alpha virt. eigenvalues --    5.42538   5.46409   5.47876   5.49324   5.57303
 Alpha virt. eigenvalues --    5.64366   5.65739   5.69292   6.11568   6.13134
 Alpha virt. eigenvalues --    6.14368   6.21196   6.21361   6.80445   6.80703
 Alpha virt. eigenvalues --    6.85523   6.96975   7.61787   7.65294   7.67794
 Alpha virt. eigenvalues --    8.04705   8.09219   8.10094  10.38269  15.16606
 Alpha virt. eigenvalues --   52.95405
          Condensed to atoms (all electrons):
 Mulliken charges:
               1
     1  C    0.266975
     2  H   -0.372752
     3  H    0.040999
     4  H    0.073327
     5  H   -0.091860
     6  C    0.025349
     7  H    0.067890
     8  H    0.005773
     9  H   -0.024627
    10  H    0.008926
 Sum of Mulliken charges =   0.00000
 Mulliken charges with hydrogens summed into heavy atoms:
               1
     1  C   -0.083310
     6  C    0.083310
 Electronic spatial extent (au):  <R**2>=             35.5905
 Charge=              0.0000 electrons
 Dipole moment (field-independent basis, Debye):
    X=             -0.0002    Y=              0.0001    Z=              0.0005  Tot=              0.0005

 Test job not archived.
 1\1\GINC-CHIMERA-NODE45\SP\RM05\Gen\C2H8\CONNORNM\07-Dec-2018\0\\#T M0
 5/Gen test Massage SCF=(tight,maxcyc=40)\\M05 opt\\0,1\C,0,0.,0.,0.\H,
 0,0.42799444,0.,-1.02117908\H,0,0.36169582,-0.8892139,0.5517796\H,0,0.
 31538,0.91820799,0.53236781\H,0,-1.10507026,-0.02899409,-0.06296833\C,
 0,0.,0.,3.30972461\H,0,0.48369567,0.64938312,2.55452529\H,0,-0.0609584
 5,0.53879292,4.27511169\H,0,-1.01995291,-0.26486882,2.96983268\H,0,0.5
 9721568,-0.92330721,3.4394288\\Version=AS64L-G09RevD.01\HF=-45.8800743
 \RMSD=4.493e-09\Dipole=-0.0000926,0.0000219,0.0001897\Quadrupole=-0.00
 06702,-0.0010668,0.001737,0.0001779,-0.0000418,0.0001266\PG=C01 [X(C2H
 8)]\\@


 FAULTILY FAULTLESS, ICILY REGULAR, SPLENDIDLY NULL...
           MAUDE BY TENNYSON
 Job cpu time:       0 days  0 hours 17 minutes 29.2 seconds.
 File lengths (MBytes):  RWF=     41 Int=      0 D2E=      0 Chk=      4 Scr=      1
 Normal termination of Gaussian 09 at Fri Dec  7 11:59:50 2018.
