 Entering Gaussian System, Link 0=/data/szalewicgrp/connornm/opt/Gaussian/g09-M05-par/g09/g09
 AtFile(1): aug-cc-pVTZ.gbs
 Initial command:
 /data/szalewicgrp/connornm/opt/Gaussian/g09-M05-par/g09/l1.exe "/scratch/local/Gau-31810.inp" -scrdir="/scratch/local/"
 Entering Link 1 = /data/szalewicgrp/connornm/opt/Gaussian/g09-M05-par/g09/l1.exe PID=     31811.
  
 Copyright (c) 1988,1990,1992,1993,1995,1998,2003,2009,2013,
            Gaussian, Inc.  All Rights Reserved.
  
 This is part of the Gaussian(R) 09 program.  It is based on
 the Gaussian(R) 03 system (copyright 2003, Gaussian, Inc.),
 the Gaussian(R) 98 system (copyright 1998, Gaussian, Inc.),
 the Gaussian(R) 94 system (copyright 1995, Gaussian, Inc.),
 the Gaussian 92(TM) system (copyright 1992, Gaussian, Inc.),
 the Gaussian 90(TM) system (copyright 1990, Gaussian, Inc.),
 the Gaussian 88(TM) system (copyright 1988, Gaussian, Inc.),
 the Gaussian 86(TM) system (copyright 1986, Carnegie Mellon
 University), and the Gaussian 82(TM) system (copyright 1983,
 Carnegie Mellon University). Gaussian is a federally registered
 trademark of Gaussian, Inc.
  
 This software contains proprietary and confidential information,
 including trade secrets, belonging to Gaussian, Inc.
  
 This software is provided under written license and may be
 used, copied, transmitted, or stored only in accord with that
 written license.
  
 The following legend is applicable only to US Government
 contracts under FAR:
  
                    RESTRICTED RIGHTS LEGEND
  
 Use, reproduction and disclosure by the US Government is
 subject to restrictions as set forth in subparagraphs (a)
 and (c) of the Commercial Computer Software - Restricted
 Rights clause in FAR 52.227-19.
  
 Gaussian, Inc.
 340 Quinnipiac St., Bldg. 40, Wallingford CT 06492
  
  
 ---------------------------------------------------------------
 Warning -- This program may not be used in any manner that
 competes with the business of Gaussian, Inc. or will provide
 assistance to any competitor of Gaussian, Inc.  The licensee
 of this program is prohibited from giving any competitor of
 Gaussian, Inc. access to this program.  By using this program,
 the user acknowledges that Gaussian, Inc. is engaged in the
 business of creating and licensing software in the field of
 computational chemistry and represents and warrants to the
 licensee that it is not a competitor of Gaussian, Inc. and that
 it will not use this program in any manner prohibited above.
 ---------------------------------------------------------------
  

 Cite this work as:
 Gaussian 09, Revision D.01,
 M. J. Frisch, G. W. Trucks, H. B. Schlegel, G. E. Scuseria, 
 M. A. Robb, J. R. Cheeseman, G. Scalmani, V. Barone, B. Mennucci, 
 G. A. Petersson, H. Nakatsuji, M. Caricato, X. Li, H. P. Hratchian, 
 A. F. Izmaylov, J. Bloino, G. Zheng, J. L. Sonnenberg, M. Hada, 
 M. Ehara, K. Toyota, R. Fukuda, J. Hasegawa, M. Ishida, T. Nakajima, 
 Y. Honda, O. Kitao, H. Nakai, T. Vreven, J. A. Montgomery, Jr., 
 J. E. Peralta, F. Ogliaro, M. Bearpark, J. J. Heyd, E. Brothers, 
 K. N. Kudin, V. N. Staroverov, T. Keith, R. Kobayashi, J. Normand, 
 K. Raghavachari, A. Rendell, J. C. Burant, S. S. Iyengar, J. Tomasi, 
 M. Cossi, N. Rega, J. M. Millam, M. Klene, J. E. Knox, J. B. Cross, 
 V. Bakken, C. Adamo, J. Jaramillo, R. Gomperts, R. E. Stratmann, 
 O. Yazyev, A. J. Austin, R. Cammi, C. Pomelli, J. W. Ochterski, 
 R. L. Martin, K. Morokuma, V. G. Zakrzewski, G. A. Voth, 
 P. Salvador, J. J. Dannenberg, S. Dapprich, A. D. Daniels, 
 O. Farkas, J. B. Foresman, J. V. Ortiz, J. Cioslowski, 
 and D. J. Fox, Gaussian, Inc., Wallingford CT, 2013.
 
 ******************************************
 Gaussian 09:  AS64L-G09RevD.01 24-Apr-2013
                 8-Dec-2018 
 ******************************************
 %Chk=CH400098
 %Mem=2GB
 %NProcShared=16
 Will use up to   16 processors via shared memory.
 ---------------------------------------------
 #T M05/Gen test Massage SCF=(tight,maxcyc=40)
 ---------------------------------------------
 -------
 M05 opt
 -------
 Symbolic Z-matrix:
 Charge =  0 Multiplicity = 1
 6                     0.        0.        0. 
 1                     0.86369   0.        0.69284 
 1                    -0.12569   1.01122  -0.43315 
 1                     0.17899  -0.7301   -0.81296 
 1                    -0.91698  -0.28112   0.55326 
 6-Bq                  0.        0.        2.5426 
 1-Bq                 -0.53599   0.96886   2.53864 
 1-Bq                 -0.65657  -0.78674   2.12315 
 1-Bq                  0.91657   0.08276   1.92693 
 1-Bq                  0.276    -0.26487   3.58166 
 
                    Distance matrix (angstroms):
                    1          2          3          4          5
     1  C    0.000000
     2  H    1.107242   0.000000
     3  H    1.107243   1.808119   0.000000
     4  H    1.107243   1.808119   1.808119   0.000000
     5  H    1.107243   1.808119   1.808119   1.808119   0.000000
     6  C    2.542596   2.041457   3.145383   3.438723   2.208466
     7  H    2.769598   2.510930   3.000282   3.825032   2.376827
     8  H    2.357502   2.230680   3.170044   3.053209   1.669733
     9  H    2.135418   1.237992   2.741958   2.951568   2.319756
    10  H    3.602030   2.959866   4.231839   4.420239   3.254943
                    6          7          8          9         10
     6  C    0.000000
     7  H    1.107243   0.000000
     8  H    1.107243   1.808119   0.000000
     9  H    1.107242   1.808119   1.808119   0.000000
    10  H    1.107242   1.808119   1.808119   1.808119   0.000000
 Symmetry turned off by external request.
 This structure is nearly, but not quite of a higher symmetry.
 Consider Symm=Loose if the higher symmetry is desired.
 Framework group  C1[X(C2H8)]
 Deg. of freedom    24
 Rotational constants (GHZ):     76.6916057      8.6523741      8.6523741
   276 basis functions,   360 primitive gaussians,   310 cartesian basis functions
     5 alpha electrons        5 beta electrons
       nuclear repulsion energy        13.2261669825 Hartrees.
 IMHF & INEx in M05                  614413                  385587
 NAtoms=   10 NActive=   10 NUniq=   10 SFac= 1.00D+00 NAtFMM=   60 NAOKFM=F Big=F
 ExpMin= 2.53D-02 ExpMax= 8.24D+03 ExpMxC= 2.81D+02 IAcc=3 IRadAn=         5 AccDes= 0.00D+00
 Harris functional with IExCor= 1009 and IRadAn=       5 diagonalized for initial guess.
 HarFok:  IExCor= 1009 AccDes= 0.00D+00 IRadAn=         5 IDoV= 1 UseB2=F ITyADJ=14
 ICtDFT=  3500011 ScaDFX=  1.000000  1.000000  1.000000  1.000000
 FoFCou: FMM=F IPFlag=           0 FMFlag=      100000 FMFlg1=           0
         NFxFlg=           0 DoJE=T BraDBF=F KetDBF=T FulRan=T
         wScrn=  0.000000 ICntrl=     500 IOpCl=  0 I1Cent=   200000004 NGrid=           0
         NMat0=    1 NMatS0=      1 NMatT0=    0 NMatD0=    1 NMtDS0=    0 NMtDT0=    0
 Symmetry not used in FoFCou.
 SCF Done:  E(RM05) =  -45.8813843570     A.U. after   11 cycles
            NFock= 11  Conv=0.25D-08     -V/T= 2.0327

 **********************************************************************

            Population analysis using the SCF density.

 **********************************************************************

 Alpha  occ. eigenvalues --  -12.05225  -0.99446  -0.71172  -0.71161  -0.71145
 Alpha virt. eigenvalues --   -0.08947  -0.01746  -0.01733  -0.01713  -0.00521
 Alpha virt. eigenvalues --   -0.00402  -0.00348   0.03202   0.04112   0.04749
 Alpha virt. eigenvalues --    0.05696   0.06010   0.06378   0.07217   0.07742
 Alpha virt. eigenvalues --    0.07985   0.09646   0.11718   0.12679   0.13235
 Alpha virt. eigenvalues --    0.15612   0.17942   0.18575   0.20358   0.21033
 Alpha virt. eigenvalues --    0.21396   0.21690   0.22304   0.23332   0.23657
 Alpha virt. eigenvalues --    0.23997   0.24670   0.25509   0.26070   0.27281
 Alpha virt. eigenvalues --    0.28611   0.29540   0.30167   0.31062   0.32470
 Alpha virt. eigenvalues --    0.33116   0.34669   0.36459   0.37720   0.38735
 Alpha virt. eigenvalues --    0.39895   0.40636   0.41232   0.43075   0.43452
 Alpha virt. eigenvalues --    0.44689   0.45888   0.45973   0.47295   0.48714
 Alpha virt. eigenvalues --    0.49937   0.51577   0.53077   0.53711   0.54366
 Alpha virt. eigenvalues --    0.57321   0.58133   0.58359   0.59205   0.60194
 Alpha virt. eigenvalues --    0.61372   0.61716   0.63951   0.65706   0.65925
 Alpha virt. eigenvalues --    0.67454   0.69846   0.73090   0.73650   0.75295
 Alpha virt. eigenvalues --    0.76743   0.77390   0.80028   0.81022   0.81982
 Alpha virt. eigenvalues --    0.83593   0.85724   0.86098   0.88318   0.89178
 Alpha virt. eigenvalues --    0.90283   0.92695   0.93410   0.95057   0.95650
 Alpha virt. eigenvalues --    0.96784   0.98709   0.99193   0.99446   1.01585
 Alpha virt. eigenvalues --    1.03545   1.04811   1.05722   1.07888   1.09180
 Alpha virt. eigenvalues --    1.10720   1.11679   1.12762   1.14623   1.16315
 Alpha virt. eigenvalues --    1.18912   1.19531   1.21700   1.23509   1.23922
 Alpha virt. eigenvalues --    1.25459   1.26267   1.28142   1.28922   1.29734
 Alpha virt. eigenvalues --    1.30205   1.31175   1.32374   1.35827   1.37017
 Alpha virt. eigenvalues --    1.38283   1.40732   1.42412   1.45808   1.46370
 Alpha virt. eigenvalues --    1.48913   1.49731   1.52467   1.54748   1.56672
 Alpha virt. eigenvalues --    1.58989   1.62788   1.64307   1.67477   1.68927
 Alpha virt. eigenvalues --    1.71459   1.74449   1.75216   1.75670   1.77605
 Alpha virt. eigenvalues --    1.79670   1.81982   1.83403   1.85577   1.88065
 Alpha virt. eigenvalues --    1.89648   1.91329   1.93395   1.94860   1.97119
 Alpha virt. eigenvalues --    1.98471   2.00967   2.06712   2.08059   2.11456
 Alpha virt. eigenvalues --    2.17243   2.23523   2.31584   2.32510   2.36959
 Alpha virt. eigenvalues --    2.42767   2.46969   2.49474   2.58106   2.58576
 Alpha virt. eigenvalues --    2.61084   2.62053   2.64443   2.80512   2.86417
 Alpha virt. eigenvalues --    3.04774   3.07067   3.09557   3.10095   3.15879
 Alpha virt. eigenvalues --    3.22923   3.24221   3.25551   3.28897   3.34582
 Alpha virt. eigenvalues --    3.42673   3.47128   3.48298   3.49677   3.51959
 Alpha virt. eigenvalues --    3.56522   3.57192   3.58936   3.64977   3.66183
 Alpha virt. eigenvalues --    3.76691   3.84155   3.85252   3.90506   3.93085
 Alpha virt. eigenvalues --    3.95515   3.98983   4.03686   4.04805   4.05941
 Alpha virt. eigenvalues --    4.07644   4.09595   4.12958   4.14864   4.17917
 Alpha virt. eigenvalues --    4.19307   4.23168   4.26742   4.27685   4.29551
 Alpha virt. eigenvalues --    4.32083   4.34091   4.35958   4.38020   4.46546
 Alpha virt. eigenvalues --    4.48566   4.49472   4.51987   4.53305   4.57336
 Alpha virt. eigenvalues --    4.60985   4.62101   4.72867   4.73939   4.75359
 Alpha virt. eigenvalues --    4.82108   4.84180   4.86884   4.89424   4.91849
 Alpha virt. eigenvalues --    4.92752   4.97987   5.02919   5.06016   5.10719
 Alpha virt. eigenvalues --    5.16359   5.16545   5.18816   5.22035   5.24958
 Alpha virt. eigenvalues --    5.27790   5.32202   5.35328   5.41538   5.44524
 Alpha virt. eigenvalues --    5.46258   5.52382   5.58360   5.65904   5.69900
 Alpha virt. eigenvalues --    5.72328   5.80279   5.84812   6.01933   6.04641
 Alpha virt. eigenvalues --    6.06493   6.10665   6.34252   6.74800   6.77721
 Alpha virt. eigenvalues --    6.89890   6.97730   7.44972   7.54510   7.62767
 Alpha virt. eigenvalues --    7.98130   8.03092   8.10587  10.43318  15.83748
 Alpha virt. eigenvalues --   53.64685
          Condensed to atoms (all electrons):
 Mulliken charges:
               1
     1  C   -0.088427
     2  H    1.320413
     3  H   -0.289033
     4  H   -0.670986
     5  H    0.019347
     6  C    0.154802
     7  H   -0.017435
     8  H    0.056599
     9  H   -0.487784
    10  H    0.002504
 Sum of Mulliken charges =  -0.00000
 Mulliken charges with hydrogens summed into heavy atoms:
               1
     1  C    0.291314
     6  C   -0.291314
 Electronic spatial extent (au):  <R**2>=             35.5912
 Charge=             -0.0000 electrons
 Dipole moment (field-independent basis, Debye):
    X=              0.0009    Y=             -0.0002    Z=              0.0012  Tot=              0.0015

 Test job not archived.
 1\1\GINC-CHIMERA-NODE31\SP\RM05\Gen\C2H8\CONNORNM\08-Dec-2018\0\\#T M0
 5/Gen test Massage SCF=(tight,maxcyc=40)\\M05 opt\\0,1\C,0,0.,0.,0.\H,
 0,0.86368773,0.,0.69284158\H,0,-0.12569086,1.01122146,-0.43315\H,0,0.1
 7898585,-0.73010425,-0.81295622\H,0,-0.91698272,-0.28111722,0.55326464
 \C,0,0.,0.,2.54259602\H,0,-0.53599417,0.96885529,2.53864237\H,0,-0.656
 57245,-0.7867422,2.12314961\H,0,0.91656695,0.08275585,1.92693179\H,0,0
 .27599967,-0.26486894,3.5816603\\Version=AS64L-G09RevD.01\HF=-45.88138
 44\RMSD=2.546e-09\Dipole=0.0003431,-0.0000725,0.0004863\Quadrupole=-0.
 0017417,-0.0007399,0.0024816,-0.0002948,0.0000515,-0.0000769\PG=C01 [X
 (C2H8)]\\@


 IF YOU GIVE EVERYONE A PIECE OF YOUR MIND,
 PRETTY SOON IT WILL BE ALL GONE.
 Job cpu time:       0 days  0 hours 20 minutes 39.9 seconds.
 File lengths (MBytes):  RWF=     41 Int=      0 D2E=      0 Chk=      4 Scr=      1
 Normal termination of Gaussian 09 at Sat Dec  8 15:33:42 2018.
