 Entering Gaussian System, Link 0=/data/szalewicgrp/connornm/opt/Gaussian/g09-M05-par/g09/g09
 AtFile(1): aug-cc-pVTZ.gbs
 Initial command:
 /data/szalewicgrp/connornm/opt/Gaussian/g09-M05-par/g09/l1.exe "/scratch/local/Gau-47406.inp" -scrdir="/scratch/local/"
 Entering Link 1 = /data/szalewicgrp/connornm/opt/Gaussian/g09-M05-par/g09/l1.exe PID=     47407.
  
 Copyright (c) 1988,1990,1992,1993,1995,1998,2003,2009,2013,
            Gaussian, Inc.  All Rights Reserved.
  
 This is part of the Gaussian(R) 09 program.  It is based on
 the Gaussian(R) 03 system (copyright 2003, Gaussian, Inc.),
 the Gaussian(R) 98 system (copyright 1998, Gaussian, Inc.),
 the Gaussian(R) 94 system (copyright 1995, Gaussian, Inc.),
 the Gaussian 92(TM) system (copyright 1992, Gaussian, Inc.),
 the Gaussian 90(TM) system (copyright 1990, Gaussian, Inc.),
 the Gaussian 88(TM) system (copyright 1988, Gaussian, Inc.),
 the Gaussian 86(TM) system (copyright 1986, Carnegie Mellon
 University), and the Gaussian 82(TM) system (copyright 1983,
 Carnegie Mellon University). Gaussian is a federally registered
 trademark of Gaussian, Inc.
  
 This software contains proprietary and confidential information,
 including trade secrets, belonging to Gaussian, Inc.
  
 This software is provided under written license and may be
 used, copied, transmitted, or stored only in accord with that
 written license.
  
 The following legend is applicable only to US Government
 contracts under FAR:
  
                    RESTRICTED RIGHTS LEGEND
  
 Use, reproduction and disclosure by the US Government is
 subject to restrictions as set forth in subparagraphs (a)
 and (c) of the Commercial Computer Software - Restricted
 Rights clause in FAR 52.227-19.
  
 Gaussian, Inc.
 340 Quinnipiac St., Bldg. 40, Wallingford CT 06492
  
  
 ---------------------------------------------------------------
 Warning -- This program may not be used in any manner that
 competes with the business of Gaussian, Inc. or will provide
 assistance to any competitor of Gaussian, Inc.  The licensee
 of this program is prohibited from giving any competitor of
 Gaussian, Inc. access to this program.  By using this program,
 the user acknowledges that Gaussian, Inc. is engaged in the
 business of creating and licensing software in the field of
 computational chemistry and represents and warrants to the
 licensee that it is not a competitor of Gaussian, Inc. and that
 it will not use this program in any manner prohibited above.
 ---------------------------------------------------------------
  

 Cite this work as:
 Gaussian 09, Revision D.01,
 M. J. Frisch, G. W. Trucks, H. B. Schlegel, G. E. Scuseria, 
 M. A. Robb, J. R. Cheeseman, G. Scalmani, V. Barone, B. Mennucci, 
 G. A. Petersson, H. Nakatsuji, M. Caricato, X. Li, H. P. Hratchian, 
 A. F. Izmaylov, J. Bloino, G. Zheng, J. L. Sonnenberg, M. Hada, 
 M. Ehara, K. Toyota, R. Fukuda, J. Hasegawa, M. Ishida, T. Nakajima, 
 Y. Honda, O. Kitao, H. Nakai, T. Vreven, J. A. Montgomery, Jr., 
 J. E. Peralta, F. Ogliaro, M. Bearpark, J. J. Heyd, E. Brothers, 
 K. N. Kudin, V. N. Staroverov, T. Keith, R. Kobayashi, J. Normand, 
 K. Raghavachari, A. Rendell, J. C. Burant, S. S. Iyengar, J. Tomasi, 
 M. Cossi, N. Rega, J. M. Millam, M. Klene, J. E. Knox, J. B. Cross, 
 V. Bakken, C. Adamo, J. Jaramillo, R. Gomperts, R. E. Stratmann, 
 O. Yazyev, A. J. Austin, R. Cammi, C. Pomelli, J. W. Ochterski, 
 R. L. Martin, K. Morokuma, V. G. Zakrzewski, G. A. Voth, 
 P. Salvador, J. J. Dannenberg, S. Dapprich, A. D. Daniels, 
 O. Farkas, J. B. Foresman, J. V. Ortiz, J. Cioslowski, 
 and D. J. Fox, Gaussian, Inc., Wallingford CT, 2013.
 
 ******************************************
 Gaussian 09:  AS64L-G09RevD.01 24-Apr-2013
                 7-Dec-2018 
 ******************************************
 %Chk=CH400016
 %Mem=2GB
 %NProcShared=16
 Will use up to   16 processors via shared memory.
 ---------------------------------------------
 #T M05/Gen test Massage SCF=(tight,maxcyc=40)
 ---------------------------------------------
 -------
 M05 opt
 -------
 Symbolic Z-matrix:
 Charge =  0 Multiplicity = 1
 6                     0.        0.        0. 
 1                     0.03577   0.       -1.10666 
 1                     0.77809  -0.6819    0.39443 
 1                     0.1833    1.02548   0.3752 
 1                    -0.99717  -0.34359   0.33704 
 6-Bq                  0.        0.        3.52644 
 1-Bq                  0.33043   0.84028   2.88555 
 1-Bq                 -0.83012   0.33653   4.17731 
 1-Bq                 -0.34661  -0.8363    2.8889 
 1-Bq                  0.8463   -0.34051   4.15399 
 
                    Distance matrix (angstroms):
                    1          2          3          4          5
     1  C    0.000000
     2  H    1.107243   0.000000
     3  H    1.107243   1.808119   0.000000
     4  H    1.107243   1.808119   1.808119   0.000000
     5  H    1.107242   1.808119   1.808119   1.808119   0.000000
     6  C    3.526437   4.633239   3.298471   3.318963   3.359262
     7  H    3.023516   4.090313   2.953491   2.521470   3.107885
     8  H    4.272268   5.365018   4.234827   3.994713   3.903605
     9  H    3.027419   4.100017   2.740658   3.172651   2.679172
    10  H    4.252973   5.333606   3.775647   4.072437   4.238803
                    6          7          8          9         10
     6  C    0.000000
     7  H    1.107243   0.000000
     8  H    1.107242   1.808119   0.000000
     9  H    1.107242   1.808119   1.808119   0.000000
    10  H    1.107242   1.808119   1.808119   1.808119   0.000000
 Symmetry turned off by external request.
 This structure is nearly, but not quite of a higher symmetry.
 Consider Symm=Loose if the higher symmetry is desired.
 Framework group  C1[X(C2H8)]
 Deg. of freedom    24
 Rotational constants (GHZ):     76.6916055      4.7555941      4.7555941
   276 basis functions,   360 primitive gaussians,   310 cartesian basis functions
     5 alpha electrons        5 beta electrons
       nuclear repulsion energy        13.2261669819 Hartrees.
 IMHF & INEx in M05                  614413                  385587
 NAtoms=   10 NActive=   10 NUniq=   10 SFac= 1.00D+00 NAtFMM=   60 NAOKFM=F Big=F
 ExpMin= 2.53D-02 ExpMax= 8.24D+03 ExpMxC= 2.81D+02 IAcc=3 IRadAn=         5 AccDes= 0.00D+00
 Harris functional with IExCor= 1009 and IRadAn=       5 diagonalized for initial guess.
 HarFok:  IExCor= 1009 AccDes= 0.00D+00 IRadAn=         5 IDoV= 1 UseB2=F ITyADJ=14
 ICtDFT=  3500011 ScaDFX=  1.000000  1.000000  1.000000  1.000000
 FoFCou: FMM=F IPFlag=           0 FMFlag=      100000 FMFlg1=           0
         NFxFlg=           0 DoJE=T BraDBF=F KetDBF=T FulRan=T
         wScrn=  0.000000 ICntrl=     500 IOpCl=  0 I1Cent=   200000004 NGrid=           0
         NMat0=    1 NMatS0=      1 NMatT0=    0 NMatD0=    1 NMtDS0=    0 NMtDT0=    0
 Symmetry not used in FoFCou.
 SCF Done:  E(RM05) =  -40.9122572814     A.U. after    7 cycles
            NFock=  7  Conv=0.63D-08     -V/T= 2.0127

 **********************************************************************

            Population analysis using the SCF density.

 **********************************************************************

 Alpha  occ. eigenvalues --  -10.74530  -0.82768  -0.48752  -0.48752  -0.48751
 Alpha virt. eigenvalues --   -0.00115   0.02317   0.02788   0.02954   0.04498
 Alpha virt. eigenvalues --    0.05369   0.05565   0.06651   0.08043   0.08841
 Alpha virt. eigenvalues --    0.09691   0.10275   0.10922   0.11614   0.12286
 Alpha virt. eigenvalues --    0.13537   0.15332   0.15702   0.17263   0.18781
 Alpha virt. eigenvalues --    0.18940   0.23178   0.23291   0.25690   0.25874
 Alpha virt. eigenvalues --    0.26212   0.26769   0.27211   0.27538   0.27926
 Alpha virt. eigenvalues --    0.28583   0.28840   0.31648   0.32144   0.32432
 Alpha virt. eigenvalues --    0.33038   0.33503   0.34666   0.36001   0.36160
 Alpha virt. eigenvalues --    0.37122   0.37769   0.38155   0.40336   0.41427
 Alpha virt. eigenvalues --    0.42034   0.42892   0.44244   0.44559   0.45271
 Alpha virt. eigenvalues --    0.46896   0.47706   0.49759   0.50218   0.52628
 Alpha virt. eigenvalues --    0.55591   0.56128   0.57841   0.59040   0.63838
 Alpha virt. eigenvalues --    0.64468   0.65181   0.66385   0.66588   0.67551
 Alpha virt. eigenvalues --    0.72469   0.72991   0.74631   0.76917   0.77389
 Alpha virt. eigenvalues --    0.78156   0.78734   0.82349   0.84028   0.85183
 Alpha virt. eigenvalues --    0.86656   0.87897   0.88623   0.91735   0.92651
 Alpha virt. eigenvalues --    0.94085   0.94975   0.95644   0.96314   0.97259
 Alpha virt. eigenvalues --    0.98253   0.98869   1.00737   1.01217   1.01857
 Alpha virt. eigenvalues --    1.02762   1.03603   1.05111   1.06072   1.06734
 Alpha virt. eigenvalues --    1.07383   1.07795   1.08368   1.11019   1.11323
 Alpha virt. eigenvalues --    1.12567   1.13311   1.14780   1.16887   1.18285
 Alpha virt. eigenvalues --    1.20793   1.21905   1.23306   1.24912   1.26123
 Alpha virt. eigenvalues --    1.29225   1.30016   1.31776   1.34214   1.37209
 Alpha virt. eigenvalues --    1.37607   1.38463   1.39849   1.41065   1.43928
 Alpha virt. eigenvalues --    1.45090   1.46278   1.49065   1.50455   1.53022
 Alpha virt. eigenvalues --    1.56005   1.56425   1.57021   1.61596   1.62442
 Alpha virt. eigenvalues --    1.64103   1.68317   1.69044   1.70224   1.71270
 Alpha virt. eigenvalues --    1.73244   1.76462   1.79617   1.80595   1.83125
 Alpha virt. eigenvalues --    1.85261   1.88043   1.90832   1.94552   1.95427
 Alpha virt. eigenvalues --    1.96161   1.97521   1.98403   2.00638   2.02335
 Alpha virt. eigenvalues --    2.04982   2.06094   2.06831   2.09408   2.10898
 Alpha virt. eigenvalues --    2.17754   2.26539   2.31059   2.31717   2.43008
 Alpha virt. eigenvalues --    2.44466   2.49555   2.67292   2.67792   2.69174
 Alpha virt. eigenvalues --    2.79302   2.83092   2.89431   2.91257   2.98839
 Alpha virt. eigenvalues --    3.21204   3.22874   3.24262   3.26647   3.28083
 Alpha virt. eigenvalues --    3.28566   3.31638   3.42259   3.58476   3.58975
 Alpha virt. eigenvalues --    3.60775   3.67424   3.72251   3.73151   3.73791
 Alpha virt. eigenvalues --    3.73889   3.76038   3.82249   3.82450   3.83979
 Alpha virt. eigenvalues --    3.86115   3.96957   3.99457   4.01270   4.06723
 Alpha virt. eigenvalues --    4.10898   4.16196   4.17185   4.19534   4.20192
 Alpha virt. eigenvalues --    4.23697   4.27389   4.32332   4.33218   4.34486
 Alpha virt. eigenvalues --    4.36216   4.37660   4.38880   4.40493   4.42407
 Alpha virt. eigenvalues --    4.44541   4.47401   4.47733   4.49782   4.50961
 Alpha virt. eigenvalues --    4.54409   4.54975   4.57659   4.58939   4.62238
 Alpha virt. eigenvalues --    4.66879   4.78365   4.79252   4.79633   4.80413
 Alpha virt. eigenvalues --    4.84895   4.90545   4.91251   4.96866   5.12235
 Alpha virt. eigenvalues --    5.13382   5.14684   5.15656   5.17267   5.18481
 Alpha virt. eigenvalues --    5.24180   5.28017   5.28146   5.31421   5.32033
 Alpha virt. eigenvalues --    5.32593   5.39156   5.45388   5.46357   5.47345
 Alpha virt. eigenvalues --    5.47828   5.50463   5.58741   5.59391   5.62850
 Alpha virt. eigenvalues --    6.05477   6.06103   6.11954   6.12526   6.13061
 Alpha virt. eigenvalues --    6.17944   6.21636   6.22534   6.79069   6.81357
 Alpha virt. eigenvalues --    6.83625   6.98407   7.62442   7.65386   7.66770
 Alpha virt. eigenvalues --    8.02895   8.03893   8.07583  10.25644  16.97444
 Alpha virt. eigenvalues --   52.21751
          Condensed to atoms (all electrons):
 Mulliken charges:
               1
     1  C   -1.952888
     2  H    0.438714
     3  H    0.492788
     4  H    0.528620
     5  H    0.498790
     6  C    0.003218
     7  H   -0.008486
     8  H    0.000157
     9  H   -0.001964
    10  H    0.001051
 Sum of Mulliken charges =  -0.00000
 Mulliken charges with hydrogens summed into heavy atoms:
               1
     1  C    0.006024
     6  C   -0.006024
 Electronic spatial extent (au):  <R**2>=             36.5420
 Charge=             -0.0000 electrons
 Dipole moment (field-independent basis, Debye):
    X=              0.0000    Y=              0.0001    Z=             -0.0000  Tot=              0.0001

 Test job not archived.
 1\1\GINC-CHIMERA-NODE48\SP\RM05\Gen\C2H8\CONNORNM\07-Dec-2018\0\\#T M0
 5/Gen test Massage SCF=(tight,maxcyc=40)\\M05 opt\\0,1\C,0,0.,0.,0.\H,
 0,0.03577273,0.,-1.10666448\H,0,0.77809496,-0.68189648,0.39442539\H,0,
 0.18329755,1.02548229,0.37519867\H,0,-0.99716523,-0.34358581,0.3370404
 2\C,0,0.,0.,3.52643674\H,0,0.3304346,0.84027532,2.8855496\H,0,-0.83011
 973,0.33652669,4.17731074\H,0,-0.34661344,-0.83629577,2.88889893\H,0,0
 .84629857,-0.34050624,4.15398768\\Version=AS64L-G09RevD.01\HF=-40.9122
 573\RMSD=6.286e-09\Dipole=0.0000061,0.000021,-0.0000149\Quadrupole=-0.
 0005171,-0.0001734,0.0006906,0.0000126,0.0000345,-0.0000769\PG=C01 [X(
 C2H8)]\\@


 SEEN ON A WALL AT THE UNIVERSITY OF ILLINOIS AT CHICAGO CIRCLE:

 TO DO IS TO BE  -- SOCRATES
 TO BE IS TO DO  -- SARTRE
 OO BE DO BE DO  -- SINATRA
 Job cpu time:       0 days  0 hours 12 minutes 10.3 seconds.
 File lengths (MBytes):  RWF=     41 Int=      0 D2E=      0 Chk=      4 Scr=      1
 Normal termination of Gaussian 09 at Fri Dec  7 22:06:46 2018.
