 Entering Gaussian System, Link 0=/data/szalewicgrp/connornm/opt/Gaussian/g09-M05-par/g09/g09
 AtFile(1): aug-cc-pVTZ.gbs
 Initial command:
 /data/szalewicgrp/connornm/opt/Gaussian/g09-M05-par/g09/l1.exe "/scratch/local/Gau-29898.inp" -scrdir="/scratch/local/"
 Entering Link 1 = /data/szalewicgrp/connornm/opt/Gaussian/g09-M05-par/g09/l1.exe PID=     29899.
  
 Copyright (c) 1988,1990,1992,1993,1995,1998,2003,2009,2013,
            Gaussian, Inc.  All Rights Reserved.
  
 This is part of the Gaussian(R) 09 program.  It is based on
 the Gaussian(R) 03 system (copyright 2003, Gaussian, Inc.),
 the Gaussian(R) 98 system (copyright 1998, Gaussian, Inc.),
 the Gaussian(R) 94 system (copyright 1995, Gaussian, Inc.),
 the Gaussian 92(TM) system (copyright 1992, Gaussian, Inc.),
 the Gaussian 90(TM) system (copyright 1990, Gaussian, Inc.),
 the Gaussian 88(TM) system (copyright 1988, Gaussian, Inc.),
 the Gaussian 86(TM) system (copyright 1986, Carnegie Mellon
 University), and the Gaussian 82(TM) system (copyright 1983,
 Carnegie Mellon University). Gaussian is a federally registered
 trademark of Gaussian, Inc.
  
 This software contains proprietary and confidential information,
 including trade secrets, belonging to Gaussian, Inc.
  
 This software is provided under written license and may be
 used, copied, transmitted, or stored only in accord with that
 written license.
  
 The following legend is applicable only to US Government
 contracts under FAR:
  
                    RESTRICTED RIGHTS LEGEND
  
 Use, reproduction and disclosure by the US Government is
 subject to restrictions as set forth in subparagraphs (a)
 and (c) of the Commercial Computer Software - Restricted
 Rights clause in FAR 52.227-19.
  
 Gaussian, Inc.
 340 Quinnipiac St., Bldg. 40, Wallingford CT 06492
  
  
 ---------------------------------------------------------------
 Warning -- This program may not be used in any manner that
 competes with the business of Gaussian, Inc. or will provide
 assistance to any competitor of Gaussian, Inc.  The licensee
 of this program is prohibited from giving any competitor of
 Gaussian, Inc. access to this program.  By using this program,
 the user acknowledges that Gaussian, Inc. is engaged in the
 business of creating and licensing software in the field of
 computational chemistry and represents and warrants to the
 licensee that it is not a competitor of Gaussian, Inc. and that
 it will not use this program in any manner prohibited above.
 ---------------------------------------------------------------
  

 Cite this work as:
 Gaussian 09, Revision D.01,
 M. J. Frisch, G. W. Trucks, H. B. Schlegel, G. E. Scuseria, 
 M. A. Robb, J. R. Cheeseman, G. Scalmani, V. Barone, B. Mennucci, 
 G. A. Petersson, H. Nakatsuji, M. Caricato, X. Li, H. P. Hratchian, 
 A. F. Izmaylov, J. Bloino, G. Zheng, J. L. Sonnenberg, M. Hada, 
 M. Ehara, K. Toyota, R. Fukuda, J. Hasegawa, M. Ishida, T. Nakajima, 
 Y. Honda, O. Kitao, H. Nakai, T. Vreven, J. A. Montgomery, Jr., 
 J. E. Peralta, F. Ogliaro, M. Bearpark, J. J. Heyd, E. Brothers, 
 K. N. Kudin, V. N. Staroverov, T. Keith, R. Kobayashi, J. Normand, 
 K. Raghavachari, A. Rendell, J. C. Burant, S. S. Iyengar, J. Tomasi, 
 M. Cossi, N. Rega, J. M. Millam, M. Klene, J. E. Knox, J. B. Cross, 
 V. Bakken, C. Adamo, J. Jaramillo, R. Gomperts, R. E. Stratmann, 
 O. Yazyev, A. J. Austin, R. Cammi, C. Pomelli, J. W. Ochterski, 
 R. L. Martin, K. Morokuma, V. G. Zakrzewski, G. A. Voth, 
 P. Salvador, J. J. Dannenberg, S. Dapprich, A. D. Daniels, 
 O. Farkas, J. B. Foresman, J. V. Ortiz, J. Cioslowski, 
 and D. J. Fox, Gaussian, Inc., Wallingford CT, 2013.
 
 ******************************************
 Gaussian 09:  AS64L-G09RevD.01 24-Apr-2013
                 7-Dec-2018 
 ******************************************
 %Chk=CH400097
 %Mem=2GB
 %NProcShared=16
 Will use up to   16 processors via shared memory.
 ---------------------------------------------
 #T M05/Gen test Massage SCF=(tight,maxcyc=40)
 ---------------------------------------------
 -------
 M05 opt
 -------
 Symbolic Z-matrix:
 Charge =  0 Multiplicity = 1
 6                     0.        0.        0. 
 1                     0.23423   0.       -1.08218 
 1                     0.31368  -0.9639    0.44552 
 1                     0.54192   0.82907   0.49492 
 1                    -1.08982   0.13483   0.14175 
 6-Bq                  0.        0.        3.17657 
 1-Bq                 -0.92053   0.37869   2.6916 
 1-Bq                 -0.03835   0.21722   4.26162 
 1-Bq                  0.07566  -1.09373   3.02158 
 1-Bq                  0.88322   0.49781   2.7315 
 
                    Distance matrix (angstroms):
                    1          2          3          4          5
     1  C    0.000000
     2  H    1.107243   0.000000
     3  H    1.107243   1.808119   0.000000
     4  H    1.107243   1.808119   1.808119   0.000000
     5  H    1.107242   1.808119   1.808119   1.808119   0.000000
     6  C    3.176573   4.265194   2.913101   2.858725   3.227392
     7  H    2.869753   3.964632   2.893216   2.677127   2.567073
     8  H    4.267326   5.355160   4.010189   3.859937   4.252734
     9  H    3.214324   4.249968   2.590285   3.209136   3.340824
    10  H    2.913583   3.900407   2.772487   2.286590   3.275889
                    6          7          8          9         10
     6  C    0.000000
     7  H    1.107242   0.000000
     8  H    1.107243   1.808119   0.000000
     9  H    1.107243   1.808119   1.808119   0.000000
    10  H    1.107243   1.808119   1.808119   1.808119   0.000000
 Symmetry turned off by external request.
 This structure is nearly, but not quite of a higher symmetry.
 Consider Symm=Loose if the higher symmetry is desired.
 Framework group  C1[X(C2H8)]
 Deg. of freedom    24
 Rotational constants (GHZ):     76.6916056      5.7775706      5.7775706
   276 basis functions,   360 primitive gaussians,   310 cartesian basis functions
     5 alpha electrons        5 beta electrons
       nuclear repulsion energy        13.2261669758 Hartrees.
 IMHF & INEx in M05                  614413                  385587
 NAtoms=   10 NActive=   10 NUniq=   10 SFac= 1.00D+00 NAtFMM=   60 NAOKFM=F Big=F
 ExpMin= 2.53D-02 ExpMax= 8.24D+03 ExpMxC= 2.81D+02 IAcc=3 IRadAn=         5 AccDes= 0.00D+00
 Harris functional with IExCor= 1009 and IRadAn=       5 diagonalized for initial guess.
 HarFok:  IExCor= 1009 AccDes= 0.00D+00 IRadAn=         5 IDoV= 1 UseB2=F ITyADJ=14
 ICtDFT=  3500011 ScaDFX=  1.000000  1.000000  1.000000  1.000000
 FoFCou: FMM=F IPFlag=           0 FMFlag=      100000 FMFlg1=           0
         NFxFlg=           0 DoJE=T BraDBF=F KetDBF=T FulRan=T
         wScrn=  0.000000 ICntrl=     500 IOpCl=  0 I1Cent=   200000004 NGrid=           0
         NMat0=    1 NMatS0=      1 NMatT0=    0 NMatD0=    1 NMtDS0=    0 NMtDT0=    0
 Symmetry not used in FoFCou.
 SCF Done:  E(RM05) =  -45.8802420405     A.U. after   10 cycles
            NFock= 10  Conv=0.42D-08     -V/T= 2.0333

 **********************************************************************

            Population analysis using the SCF density.

 **********************************************************************

 Alpha  occ. eigenvalues --  -12.05219  -0.99438  -0.71145  -0.71144  -0.71142
 Alpha virt. eigenvalues --   -0.08957  -0.01733  -0.01728  -0.01726  -0.00588
 Alpha virt. eigenvalues --   -0.00306  -0.00268   0.03313   0.03705   0.04258
 Alpha virt. eigenvalues --    0.05391   0.06173   0.06633   0.07072   0.08488
 Alpha virt. eigenvalues --    0.08776   0.09268   0.11270   0.12081   0.12229
 Alpha virt. eigenvalues --    0.16306   0.17683   0.18813   0.19446   0.19741
 Alpha virt. eigenvalues --    0.20118   0.20183   0.21280   0.22135   0.23203
 Alpha virt. eigenvalues --    0.24644   0.25026   0.25544   0.26061   0.27477
 Alpha virt. eigenvalues --    0.27753   0.28269   0.30445   0.31544   0.31681
 Alpha virt. eigenvalues --    0.32593   0.33902   0.34054   0.35086   0.35272
 Alpha virt. eigenvalues --    0.37664   0.38730   0.39827   0.41990   0.43001
 Alpha virt. eigenvalues --    0.43797   0.44123   0.44932   0.46287   0.47904
 Alpha virt. eigenvalues --    0.49550   0.50295   0.52157   0.53080   0.54353
 Alpha virt. eigenvalues --    0.54642   0.55745   0.57832   0.58463   0.60456
 Alpha virt. eigenvalues --    0.62419   0.63026   0.64117   0.65250   0.66253
 Alpha virt. eigenvalues --    0.66823   0.68885   0.71694   0.72138   0.73001
 Alpha virt. eigenvalues --    0.73682   0.75336   0.77455   0.77859   0.78777
 Alpha virt. eigenvalues --    0.81292   0.83304   0.83978   0.85653   0.86375
 Alpha virt. eigenvalues --    0.87154   0.90081   0.91786   0.92971   0.94005
 Alpha virt. eigenvalues --    0.95160   0.96869   0.96941   0.98618   1.00200
 Alpha virt. eigenvalues --    1.00673   1.03044   1.04390   1.05202   1.05622
 Alpha virt. eigenvalues --    1.07050   1.10563   1.11458   1.12709   1.14068
 Alpha virt. eigenvalues --    1.15971   1.17747   1.18192   1.18955   1.20044
 Alpha virt. eigenvalues --    1.22246   1.23012   1.23854   1.25971   1.26407
 Alpha virt. eigenvalues --    1.27899   1.31043   1.31912   1.32500   1.34422
 Alpha virt. eigenvalues --    1.35222   1.37695   1.39431   1.40051   1.41808
 Alpha virt. eigenvalues --    1.42332   1.45497   1.46099   1.48703   1.50148
 Alpha virt. eigenvalues --    1.51013   1.52911   1.56556   1.57741   1.60574
 Alpha virt. eigenvalues --    1.64845   1.68724   1.70329   1.73081   1.74121
 Alpha virt. eigenvalues --    1.75734   1.78776   1.79420   1.80400   1.84171
 Alpha virt. eigenvalues --    1.84563   1.87158   1.91681   1.93264   1.96265
 Alpha virt. eigenvalues --    1.98234   1.98388   2.05382   2.05666   2.08555
 Alpha virt. eigenvalues --    2.10008   2.17207   2.28460   2.28915   2.33778
 Alpha virt. eigenvalues --    2.42995   2.44404   2.50364   2.52493   2.54335
 Alpha virt. eigenvalues --    2.59429   2.66637   2.67139   2.71243   2.85309
 Alpha virt. eigenvalues --    2.99999   3.01508   3.04645   3.07739   3.08769
 Alpha virt. eigenvalues --    3.10832   3.11997   3.15243   3.22955   3.23542
 Alpha virt. eigenvalues --    3.32712   3.46125   3.46678   3.47976   3.50148
 Alpha virt. eigenvalues --    3.50968   3.52783   3.57438   3.59488   3.60284
 Alpha virt. eigenvalues --    3.85265   3.91416   3.91482   3.93827   3.96385
 Alpha virt. eigenvalues --    3.98601   4.01366   4.02463   4.03664   4.04538
 Alpha virt. eigenvalues --    4.07209   4.09391   4.09616   4.09955   4.17012
 Alpha virt. eigenvalues --    4.17390   4.18614   4.22703   4.26253   4.27579
 Alpha virt. eigenvalues --    4.33362   4.34323   4.37559   4.38683   4.46175
 Alpha virt. eigenvalues --    4.47404   4.48606   4.48989   4.51616   4.53848
 Alpha virt. eigenvalues --    4.55677   4.57774   4.60858   4.65522   4.66839
 Alpha virt. eigenvalues --    4.77521   4.85004   4.88216   4.90135   4.90896
 Alpha virt. eigenvalues --    4.91267   4.92443   4.98332   5.02592   5.03294
 Alpha virt. eigenvalues --    5.10561   5.15078   5.16668   5.18272   5.20028
 Alpha virt. eigenvalues --    5.21839   5.27232   5.27400   5.30376   5.38891
 Alpha virt. eigenvalues --    5.39699   5.46101   5.47159   5.49072   5.54053
 Alpha virt. eigenvalues --    5.64941   5.66157   5.71683   6.11331   6.12812
 Alpha virt. eigenvalues --    6.13401   6.21028   6.21177   6.79345   6.80161
 Alpha virt. eigenvalues --    6.80989   6.96754   7.62413   7.64163   7.68535
 Alpha virt. eigenvalues --    8.06314   8.07278   8.13166  10.44439  15.35150
 Alpha virt. eigenvalues --   52.94185
          Condensed to atoms (all electrons):
 Mulliken charges:
               1
     1  C    0.409466
     2  H   -0.456181
     3  H    0.018874
     4  H   -0.000323
     5  H   -0.011370
     6  C    0.033696
     7  H   -0.009894
     8  H    0.011635
     9  H    0.004446
    10  H   -0.000350
 Sum of Mulliken charges =   0.00000
 Mulliken charges with hydrogens summed into heavy atoms:
               1
     1  C   -0.039533
     6  C    0.039533
 Electronic spatial extent (au):  <R**2>=             35.5901
 Charge=              0.0000 electrons
 Dipole moment (field-independent basis, Debye):
    X=              0.0002    Y=              0.0002    Z=              0.0008  Tot=              0.0009

 Test job not archived.
 1\1\GINC-CHIMERA-NODE61\SP\RM05\Gen\C2H8\CONNORNM\07-Dec-2018\0\\#T M0
 5/Gen test Massage SCF=(tight,maxcyc=40)\\M05 opt\\0,1\C,0,0.,0.,0.\H,
 0,0.23422597,0.,-1.0821849\H,0,0.31367647,-0.9639017,0.44551829\H,0,0.
 54192091,0.82907346,0.49491907\H,0,-1.08982335,0.13482824,0.14174754\C
 ,0,0.,0.,3.17657252\H,0,-0.92053153,0.37869113,2.69159759\H,0,-0.03834
 665,0.2172219,4.26162097\H,0,0.07565976,-1.09372641,3.02157542\H,0,0.8
 8321842,0.49781337,2.73149609\\Version=AS64L-G09RevD.01\HF=-45.880242\
 RMSD=4.171e-09\Dipole=0.0000688,0.0000871,0.0003174\Quadrupole=-0.0006
 365,-0.0005019,0.0011385,-0.0000051,0.0000253,0.000007\PG=C01 [X(C2H8)
 ]\\@


 WE STILL HAVE JUDGEMENT HERE,
 THAT WE TEACH BUT BLOODY INSTRUCTIONS,
 WHICH, BEING TAUGHT,
 RETURN TO PLAGUE THE INVENTOR.
           MACBETH ACT I, SCENE VII
 Job cpu time:       0 days  0 hours 18 minutes  1.8 seconds.
 File lengths (MBytes):  RWF=     41 Int=      0 D2E=      0 Chk=      4 Scr=      1
 Normal termination of Gaussian 09 at Fri Dec  7 11:58:56 2018.
