 Entering Gaussian System, Link 0=/data/szalewicgrp/connornm/opt/Gaussian/g09-M05-par/g09/g09
 AtFile(1): aug-cc-pVTZ.gbs
 Initial command:
 /data/szalewicgrp/connornm/opt/Gaussian/g09-M05-par/g09/l1.exe "/scratch/local/Gau-738.inp" -scrdir="/scratch/local/"
 Entering Link 1 = /data/szalewicgrp/connornm/opt/Gaussian/g09-M05-par/g09/l1.exe PID=       739.
  
 Copyright (c) 1988,1990,1992,1993,1995,1998,2003,2009,2013,
            Gaussian, Inc.  All Rights Reserved.
  
 This is part of the Gaussian(R) 09 program.  It is based on
 the Gaussian(R) 03 system (copyright 2003, Gaussian, Inc.),
 the Gaussian(R) 98 system (copyright 1998, Gaussian, Inc.),
 the Gaussian(R) 94 system (copyright 1995, Gaussian, Inc.),
 the Gaussian 92(TM) system (copyright 1992, Gaussian, Inc.),
 the Gaussian 90(TM) system (copyright 1990, Gaussian, Inc.),
 the Gaussian 88(TM) system (copyright 1988, Gaussian, Inc.),
 the Gaussian 86(TM) system (copyright 1986, Carnegie Mellon
 University), and the Gaussian 82(TM) system (copyright 1983,
 Carnegie Mellon University). Gaussian is a federally registered
 trademark of Gaussian, Inc.
  
 This software contains proprietary and confidential information,
 including trade secrets, belonging to Gaussian, Inc.
  
 This software is provided under written license and may be
 used, copied, transmitted, or stored only in accord with that
 written license.
  
 The following legend is applicable only to US Government
 contracts under FAR:
  
                    RESTRICTED RIGHTS LEGEND
  
 Use, reproduction and disclosure by the US Government is
 subject to restrictions as set forth in subparagraphs (a)
 and (c) of the Commercial Computer Software - Restricted
 Rights clause in FAR 52.227-19.
  
 Gaussian, Inc.
 340 Quinnipiac St., Bldg. 40, Wallingford CT 06492
  
  
 ---------------------------------------------------------------
 Warning -- This program may not be used in any manner that
 competes with the business of Gaussian, Inc. or will provide
 assistance to any competitor of Gaussian, Inc.  The licensee
 of this program is prohibited from giving any competitor of
 Gaussian, Inc. access to this program.  By using this program,
 the user acknowledges that Gaussian, Inc. is engaged in the
 business of creating and licensing software in the field of
 computational chemistry and represents and warrants to the
 licensee that it is not a competitor of Gaussian, Inc. and that
 it will not use this program in any manner prohibited above.
 ---------------------------------------------------------------
  

 Cite this work as:
 Gaussian 09, Revision D.01,
 M. J. Frisch, G. W. Trucks, H. B. Schlegel, G. E. Scuseria, 
 M. A. Robb, J. R. Cheeseman, G. Scalmani, V. Barone, B. Mennucci, 
 G. A. Petersson, H. Nakatsuji, M. Caricato, X. Li, H. P. Hratchian, 
 A. F. Izmaylov, J. Bloino, G. Zheng, J. L. Sonnenberg, M. Hada, 
 M. Ehara, K. Toyota, R. Fukuda, J. Hasegawa, M. Ishida, T. Nakajima, 
 Y. Honda, O. Kitao, H. Nakai, T. Vreven, J. A. Montgomery, Jr., 
 J. E. Peralta, F. Ogliaro, M. Bearpark, J. J. Heyd, E. Brothers, 
 K. N. Kudin, V. N. Staroverov, T. Keith, R. Kobayashi, J. Normand, 
 K. Raghavachari, A. Rendell, J. C. Burant, S. S. Iyengar, J. Tomasi, 
 M. Cossi, N. Rega, J. M. Millam, M. Klene, J. E. Knox, J. B. Cross, 
 V. Bakken, C. Adamo, J. Jaramillo, R. Gomperts, R. E. Stratmann, 
 O. Yazyev, A. J. Austin, R. Cammi, C. Pomelli, J. W. Ochterski, 
 R. L. Martin, K. Morokuma, V. G. Zakrzewski, G. A. Voth, 
 P. Salvador, J. J. Dannenberg, S. Dapprich, A. D. Daniels, 
 O. Farkas, J. B. Foresman, J. V. Ortiz, J. Cioslowski, 
 and D. J. Fox, Gaussian, Inc., Wallingford CT, 2013.
 
 ******************************************
 Gaussian 09:  AS64L-G09RevD.01 24-Apr-2013
                 7-Dec-2018 
 ******************************************
 %Chk=CH400035
 %Mem=2GB
 %NProcShared=16
 Will use up to   16 processors via shared memory.
 ---------------------------------------------
 #T M05/Gen test Massage SCF=(tight,maxcyc=40)
 ---------------------------------------------
 -------
 M05 opt
 -------
 Symbolic Z-matrix:
 Charge =  0 Multiplicity = 1
 6                     0.        0.        0. 
 1                     0.75678   0.       -0.80825 
 1                     0.19303   0.84714   0.68635 
 1                    -1.01044   0.10472  -0.44049 
 1                     0.06063  -0.95186   0.56238 
 6-Bq                  0.        0.        2.6687 
 1-Bq                  0.86857   0.68607   2.63901 
 1-Bq                  0.26949  -0.95785   2.18303 
 1-Bq                 -0.28617  -0.18779   3.72171 
 1-Bq                 -0.85189   0.45957   2.13106 
 
                    Distance matrix (angstroms):
                    1          2          3          4          5
     1  C    0.000000
     2  H    1.107243   0.000000
     3  H    1.107243   1.808119   0.000000
     4  H    1.107242   1.808119   1.808119   0.000000
     5  H    1.107242   1.808119   1.808119   1.808119   0.000000
     6  C    2.668703   3.558357   2.164396   3.270936   2.312208
     7  H    2.861728   3.516644   2.072479   3.654033   2.765498
     8  H    2.399109   3.178470   2.346034   3.106466   1.634062
     9  H    3.737418   4.652262   3.242546   4.234860   3.268859
    10  H    2.340586   3.382095   1.824620   2.600753   2.299041
                    6          7          8          9         10
     6  C    0.000000
     7  H    1.107242   0.000000
     8  H    1.107243   1.808119   0.000000
     9  H    1.107242   1.808119   1.808119   0.000000
    10  H    1.107243   1.808119   1.808119   1.808119   0.000000
 Symmetry turned off by external request.
 This structure is nearly, but not quite of a higher symmetry.
 Consider Symm=Loose if the higher symmetry is desired.
 Framework group  C1[X(C2H8)]
 Deg. of freedom    24
 Rotational constants (GHZ):     76.6916056      7.9365995      7.9365995
   276 basis functions,   360 primitive gaussians,   310 cartesian basis functions
     5 alpha electrons        5 beta electrons
       nuclear repulsion energy        13.2261670046 Hartrees.
 IMHF & INEx in M05                  614413                  385587
 NAtoms=   10 NActive=   10 NUniq=   10 SFac= 1.00D+00 NAtFMM=   60 NAOKFM=F Big=F
 ExpMin= 2.53D-02 ExpMax= 8.24D+03 ExpMxC= 2.81D+02 IAcc=3 IRadAn=         5 AccDes= 0.00D+00
 Harris functional with IExCor= 1009 and IRadAn=       5 diagonalized for initial guess.
 HarFok:  IExCor= 1009 AccDes= 0.00D+00 IRadAn=         5 IDoV= 1 UseB2=F ITyADJ=14
 ICtDFT=  3500011 ScaDFX=  1.000000  1.000000  1.000000  1.000000
 FoFCou: FMM=F IPFlag=           0 FMFlag=      100000 FMFlg1=           0
         NFxFlg=           0 DoJE=T BraDBF=F KetDBF=T FulRan=T
         wScrn=  0.000000 ICntrl=     500 IOpCl=  0 I1Cent=   200000004 NGrid=           0
         NMat0=    1 NMatS0=      1 NMatT0=    0 NMatD0=    1 NMtDS0=    0 NMtDT0=    0
 Symmetry not used in FoFCou.
 SCF Done:  E(RM05) =  -45.8808370244     A.U. after   10 cycles
            NFock= 10  Conv=0.89D-08     -V/T= 2.0331

 **********************************************************************

            Population analysis using the SCF density.

 **********************************************************************

 Alpha  occ. eigenvalues --  -12.05217  -0.99444  -0.71160  -0.71159  -0.71147
 Alpha virt. eigenvalues --   -0.08951  -0.01742  -0.01734  -0.01717  -0.00519
 Alpha virt. eigenvalues --   -0.00411  -0.00339   0.03132   0.04106   0.04656
 Alpha virt. eigenvalues --    0.05641   0.06020   0.06598   0.07110   0.07767
 Alpha virt. eigenvalues --    0.08431   0.09239   0.11805   0.12516   0.12689
 Alpha virt. eigenvalues --    0.15824   0.17217   0.18768   0.20143   0.20965
 Alpha virt. eigenvalues --    0.21211   0.21643   0.22112   0.22993   0.23649
 Alpha virt. eigenvalues --    0.24457   0.24873   0.25385   0.25768   0.27581
 Alpha virt. eigenvalues --    0.27867   0.29871   0.30136   0.31031   0.32254
 Alpha virt. eigenvalues --    0.33156   0.33904   0.35991   0.36975   0.37929
 Alpha virt. eigenvalues --    0.38852   0.40562   0.41426   0.42346   0.43208
 Alpha virt. eigenvalues --    0.44920   0.45492   0.45905   0.46818   0.47601
 Alpha virt. eigenvalues --    0.50831   0.51017   0.52432   0.53171   0.55098
 Alpha virt. eigenvalues --    0.56223   0.57550   0.58850   0.59273   0.59641
 Alpha virt. eigenvalues --    0.60407   0.61842   0.62787   0.65006   0.65689
 Alpha virt. eigenvalues --    0.68786   0.69242   0.71644   0.74274   0.74622
 Alpha virt. eigenvalues --    0.76913   0.77643   0.78809   0.80666   0.81545
 Alpha virt. eigenvalues --    0.82804   0.84984   0.86172   0.87773   0.88766
 Alpha virt. eigenvalues --    0.90313   0.92171   0.92974   0.93289   0.93802
 Alpha virt. eigenvalues --    0.95520   0.97544   0.98305   1.01233   1.01740
 Alpha virt. eigenvalues --    1.03124   1.05792   1.05911   1.06909   1.07865
 Alpha virt. eigenvalues --    1.09589   1.11721   1.12644   1.14568   1.14824
 Alpha virt. eigenvalues --    1.17079   1.17258   1.19577   1.21036   1.23148
 Alpha virt. eigenvalues --    1.24583   1.25620   1.26864   1.27700   1.30901
 Alpha virt. eigenvalues --    1.31436   1.32471   1.34295   1.36142   1.36760
 Alpha virt. eigenvalues --    1.38168   1.39636   1.40810   1.42282   1.45460
 Alpha virt. eigenvalues --    1.48429   1.49098   1.52513   1.54277   1.56561
 Alpha virt. eigenvalues --    1.57317   1.59332   1.61722   1.63050   1.68062
 Alpha virt. eigenvalues --    1.69394   1.71238   1.73347   1.73579   1.76744
 Alpha virt. eigenvalues --    1.78563   1.80167   1.82919   1.84697   1.86685
 Alpha virt. eigenvalues --    1.88047   1.90493   1.91982   1.93942   1.95440
 Alpha virt. eigenvalues --    1.96600   1.98459   2.04442   2.08455   2.12969
 Alpha virt. eigenvalues --    2.15930   2.24111   2.27932   2.30732   2.32104
 Alpha virt. eigenvalues --    2.39434   2.40860   2.50205   2.56757   2.59809
 Alpha virt. eigenvalues --    2.60316   2.61584   2.64116   2.72271   2.81775
 Alpha virt. eigenvalues --    3.02609   3.04178   3.08866   3.11158   3.13142
 Alpha virt. eigenvalues --    3.15179   3.21525   3.24821   3.28215   3.30468
 Alpha virt. eigenvalues --    3.41679   3.46000   3.49644   3.50920   3.51735
 Alpha virt. eigenvalues --    3.53480   3.56544   3.60283   3.62110   3.68690
 Alpha virt. eigenvalues --    3.77581   3.84255   3.87572   3.92954   3.94940
 Alpha virt. eigenvalues --    3.95863   4.01706   4.02482   4.04312   4.05863
 Alpha virt. eigenvalues --    4.09184   4.11176   4.12106   4.14409   4.16156
 Alpha virt. eigenvalues --    4.17858   4.19475   4.23503   4.25461   4.26491
 Alpha virt. eigenvalues --    4.29498   4.34111   4.38826   4.40509   4.45137
 Alpha virt. eigenvalues --    4.46355   4.48251   4.49583   4.52048   4.54311
 Alpha virt. eigenvalues --    4.56708   4.64545   4.67788   4.70745   4.74133
 Alpha virt. eigenvalues --    4.78089   4.83803   4.84843   4.89998   4.91581
 Alpha virt. eigenvalues --    4.94902   4.99681   5.01993   5.04740   5.08784
 Alpha virt. eigenvalues --    5.12935   5.16120   5.20080   5.20757   5.21243
 Alpha virt. eigenvalues --    5.25246   5.27809   5.31144   5.37146   5.38846
 Alpha virt. eigenvalues --    5.42771   5.49885   5.51426   5.55700   5.61971
 Alpha virt. eigenvalues --    5.67192   5.72804   5.76168   6.03512   6.05618
 Alpha virt. eigenvalues --    6.08697   6.13230   6.14906   6.73306   6.76314
 Alpha virt. eigenvalues --    6.79032   6.90093   7.52161   7.56110   7.64456
 Alpha virt. eigenvalues --    8.00076   8.04050   8.11398  10.41981  15.50800
 Alpha virt. eigenvalues --   53.10294
          Condensed to atoms (all electrons):
 Mulliken charges:
               1
     1  C    0.162174
     2  H   -0.543489
     3  H    0.042383
     4  H   -0.251380
     5  H    0.410149
     6  C    0.055921
     7  H    0.069117
     8  H   -0.050938
     9  H   -0.006821
    10  H    0.112883
 Sum of Mulliken charges =   0.00000
 Mulliken charges with hydrogens summed into heavy atoms:
               1
     1  C   -0.180162
     6  C    0.180162
 Electronic spatial extent (au):  <R**2>=             35.5910
 Charge=              0.0000 electrons
 Dipole moment (field-independent basis, Debye):
    X=             -0.0001    Y=             -0.0002    Z=              0.0006  Tot=              0.0006

 Test job not archived.
 1\1\GINC-CHIMERA-NODE51\SP\RM05\Gen\C2H8\CONNORNM\07-Dec-2018\0\\#T M0
 5/Gen test Massage SCF=(tight,maxcyc=40)\\M05 opt\\0,1\C,0,0.,0.,0.\H,
 0,0.75678404,0.,-0.80824741\H,0,0.19302993,0.84713836,0.68635414\H,0,-
 1.01044037,0.10472186,-0.44048784\H,0,0.0606264,-0.95186022,0.56238111
 \C,0,0.,0.,2.66870296\H,0,0.86856948,0.68606955,2.63901161\H,0,0.26949
 05,-0.95785263,2.18302903\H,0,-0.28616996,-0.18779181,3.72171148\H,0,-
 0.85189003,0.45957489,2.13105972\\Version=AS64L-G09RevD.01\HF=-45.8808
 37\RMSD=8.927e-09\Dipole=-0.0000492,-0.000067,0.0002278\Quadrupole=-0.
 0002385,-0.0024082,0.0026467,-0.0003922,0.0002321,-0.0008806\PG=C01 [X
 (C2H8)]\\@


 WE STILL HAVE JUDGEMENT HERE,
 THAT WE TEACH BUT BLOODY INSTRUCTIONS,
 WHICH, BEING TAUGHT,
 RETURN TO PLAGUE THE INVENTOR.
           MACBETH ACT I, SCENE VII
 Job cpu time:       0 days  0 hours 18 minutes 41.9 seconds.
 File lengths (MBytes):  RWF=     41 Int=      0 D2E=      0 Chk=      4 Scr=      1
 Normal termination of Gaussian 09 at Fri Dec  7 11:58:56 2018.
