 Entering Gaussian System, Link 0=/data/szalewicgrp/connornm/opt/Gaussian/g09-M05-par/g09/g09
 AtFile(1): aug-cc-pVTZ.gbs
 Initial command:
 /data/szalewicgrp/connornm/opt/Gaussian/g09-M05-par/g09/l1.exe "/scratch/local/Gau-18164.inp" -scrdir="/scratch/local/"
 Entering Link 1 = /data/szalewicgrp/connornm/opt/Gaussian/g09-M05-par/g09/l1.exe PID=     18165.
  
 Copyright (c) 1988,1990,1992,1993,1995,1998,2003,2009,2013,
            Gaussian, Inc.  All Rights Reserved.
  
 This is part of the Gaussian(R) 09 program.  It is based on
 the Gaussian(R) 03 system (copyright 2003, Gaussian, Inc.),
 the Gaussian(R) 98 system (copyright 1998, Gaussian, Inc.),
 the Gaussian(R) 94 system (copyright 1995, Gaussian, Inc.),
 the Gaussian 92(TM) system (copyright 1992, Gaussian, Inc.),
 the Gaussian 90(TM) system (copyright 1990, Gaussian, Inc.),
 the Gaussian 88(TM) system (copyright 1988, Gaussian, Inc.),
 the Gaussian 86(TM) system (copyright 1986, Carnegie Mellon
 University), and the Gaussian 82(TM) system (copyright 1983,
 Carnegie Mellon University). Gaussian is a federally registered
 trademark of Gaussian, Inc.
  
 This software contains proprietary and confidential information,
 including trade secrets, belonging to Gaussian, Inc.
  
 This software is provided under written license and may be
 used, copied, transmitted, or stored only in accord with that
 written license.
  
 The following legend is applicable only to US Government
 contracts under FAR:
  
                    RESTRICTED RIGHTS LEGEND
  
 Use, reproduction and disclosure by the US Government is
 subject to restrictions as set forth in subparagraphs (a)
 and (c) of the Commercial Computer Software - Restricted
 Rights clause in FAR 52.227-19.
  
 Gaussian, Inc.
 340 Quinnipiac St., Bldg. 40, Wallingford CT 06492
  
  
 ---------------------------------------------------------------
 Warning -- This program may not be used in any manner that
 competes with the business of Gaussian, Inc. or will provide
 assistance to any competitor of Gaussian, Inc.  The licensee
 of this program is prohibited from giving any competitor of
 Gaussian, Inc. access to this program.  By using this program,
 the user acknowledges that Gaussian, Inc. is engaged in the
 business of creating and licensing software in the field of
 computational chemistry and represents and warrants to the
 licensee that it is not a competitor of Gaussian, Inc. and that
 it will not use this program in any manner prohibited above.
 ---------------------------------------------------------------
  

 Cite this work as:
 Gaussian 09, Revision D.01,
 M. J. Frisch, G. W. Trucks, H. B. Schlegel, G. E. Scuseria, 
 M. A. Robb, J. R. Cheeseman, G. Scalmani, V. Barone, B. Mennucci, 
 G. A. Petersson, H. Nakatsuji, M. Caricato, X. Li, H. P. Hratchian, 
 A. F. Izmaylov, J. Bloino, G. Zheng, J. L. Sonnenberg, M. Hada, 
 M. Ehara, K. Toyota, R. Fukuda, J. Hasegawa, M. Ishida, T. Nakajima, 
 Y. Honda, O. Kitao, H. Nakai, T. Vreven, J. A. Montgomery, Jr., 
 J. E. Peralta, F. Ogliaro, M. Bearpark, J. J. Heyd, E. Brothers, 
 K. N. Kudin, V. N. Staroverov, T. Keith, R. Kobayashi, J. Normand, 
 K. Raghavachari, A. Rendell, J. C. Burant, S. S. Iyengar, J. Tomasi, 
 M. Cossi, N. Rega, J. M. Millam, M. Klene, J. E. Knox, J. B. Cross, 
 V. Bakken, C. Adamo, J. Jaramillo, R. Gomperts, R. E. Stratmann, 
 O. Yazyev, A. J. Austin, R. Cammi, C. Pomelli, J. W. Ochterski, 
 R. L. Martin, K. Morokuma, V. G. Zakrzewski, G. A. Voth, 
 P. Salvador, J. J. Dannenberg, S. Dapprich, A. D. Daniels, 
 O. Farkas, J. B. Foresman, J. V. Ortiz, J. Cioslowski, 
 and D. J. Fox, Gaussian, Inc., Wallingford CT, 2013.
 
 ******************************************
 Gaussian 09:  AS64L-G09RevD.01 24-Apr-2013
                 8-Dec-2018 
 ******************************************
 %Chk=CH400055
 %Mem=2GB
 %NProcShared=16
 Will use up to   16 processors via shared memory.
 ---------------------------------------------
 #T M05/Gen test Massage SCF=(tight,maxcyc=40)
 ---------------------------------------------
 -------
 M05 opt
 -------
 Symbolic Z-matrix:
 Charge =  0 Multiplicity = 1
 6                     0.        0.        0. 
 1                     0.27585   0.       -1.07233 
 1                     0.91883   0.0219    0.61746 
 1                    -0.61571   0.89291   0.22271 
 1                    -0.57897  -0.91481   0.23216 
 6-Bq                  0.        0.        3.81493 
 1-Bq                 -0.78678   0.72248   4.10646 
 1-Bq                  0.1111   -0.76465   4.60799 
 1-Bq                 -0.28466  -0.49228   2.86487 
 1-Bq                  0.96034   0.53445   3.68041 
 
                    Distance matrix (angstroms):
                    1          2          3          4          5
     1  C    0.000000
     2  H    1.107243   0.000000
     3  H    1.107243   1.808119   0.000000
     4  H    1.107243   1.808119   1.808119   0.000000
     5  H    1.107243   1.808119   1.808119   1.808119   0.000000
     6  C    3.814934   4.895042   3.326943   3.752394   3.742775
     7  H    4.243114   5.335826   3.946267   3.891252   4.211189
     8  H    4.672328   5.733927   4.146737   4.744103   4.432459
     9  H    2.920764   4.007253   2.600696   3.001560   2.682599
    10  H    3.841000   4.831425   3.105811   3.816816   4.044782
                    6          7          8          9         10
     6  C    0.000000
     7  H    1.107242   0.000000
     8  H    1.107243   1.808119   0.000000
     9  H    1.107243   1.808119   1.808119   0.000000
    10  H    1.107243   1.808119   1.808119   1.808119   0.000000
 Symmetry turned off by external request.
 This structure is nearly, but not quite of a higher symmetry.
 Consider Symm=Loose if the higher symmetry is desired.
 Framework group  C1[X(C2H8)]
 Deg. of freedom    24
 Rotational constants (GHZ):     76.6916054      4.1005290      4.1005290
   276 basis functions,   360 primitive gaussians,   310 cartesian basis functions
     5 alpha electrons        5 beta electrons
       nuclear repulsion energy        13.2261669758 Hartrees.
 IMHF & INEx in M05                  614413                  385587
 NAtoms=   10 NActive=   10 NUniq=   10 SFac= 1.00D+00 NAtFMM=   60 NAOKFM=F Big=F
 ExpMin= 2.53D-02 ExpMax= 8.24D+03 ExpMxC= 2.81D+02 IAcc=3 IRadAn=         5 AccDes= 0.00D+00
 Harris functional with IExCor= 1009 and IRadAn=       5 diagonalized for initial guess.
 HarFok:  IExCor= 1009 AccDes= 0.00D+00 IRadAn=         5 IDoV= 1 UseB2=F ITyADJ=14
 ICtDFT=  3500011 ScaDFX=  1.000000  1.000000  1.000000  1.000000
 FoFCou: FMM=F IPFlag=           0 FMFlag=      100000 FMFlg1=           0
         NFxFlg=           0 DoJE=T BraDBF=F KetDBF=T FulRan=T
         wScrn=  0.000000 ICntrl=     500 IOpCl=  0 I1Cent=   200000004 NGrid=           0
         NMat0=    1 NMatS0=      1 NMatT0=    0 NMatD0=    1 NMtDS0=    0 NMtDT0=    0
 Symmetry not used in FoFCou.
 SCF Done:  E(RM05) =  -45.8799965851     A.U. after   10 cycles
            NFock= 10  Conv=0.56D-08     -V/T= 2.0334

 **********************************************************************

            Population analysis using the SCF density.

 **********************************************************************

 Alpha  occ. eigenvalues --  -12.05214  -0.99435  -0.71143  -0.71141  -0.71140
 Alpha virt. eigenvalues --   -0.08962  -0.01735  -0.01732  -0.01728  -0.00566
 Alpha virt. eigenvalues --   -0.00274  -0.00265   0.03123   0.03826   0.04502
 Alpha virt. eigenvalues --    0.05565   0.05627   0.06277   0.07141   0.07988
 Alpha virt. eigenvalues --    0.08634   0.09707   0.10755   0.11923   0.13088
 Alpha virt. eigenvalues --    0.14595   0.17534   0.18714   0.19031   0.19877
 Alpha virt. eigenvalues --    0.20367   0.20782   0.21239   0.21986   0.23198
 Alpha virt. eigenvalues --    0.24279   0.24633   0.25401   0.25581   0.26076
 Alpha virt. eigenvalues --    0.26724   0.27530   0.28453   0.29283   0.30763
 Alpha virt. eigenvalues --    0.31807   0.33988   0.34312   0.34761   0.36604
 Alpha virt. eigenvalues --    0.37042   0.37927   0.38551   0.38763   0.40728
 Alpha virt. eigenvalues --    0.41994   0.42894   0.44299   0.47017   0.47861
 Alpha virt. eigenvalues --    0.48464   0.49145   0.51653   0.52969   0.54113
 Alpha virt. eigenvalues --    0.55942   0.56758   0.57834   0.58888   0.59537
 Alpha virt. eigenvalues --    0.62908   0.63206   0.64326   0.65159   0.66597
 Alpha virt. eigenvalues --    0.67020   0.67662   0.70007   0.70904   0.71742
 Alpha virt. eigenvalues --    0.72035   0.73594   0.75340   0.77138   0.79277
 Alpha virt. eigenvalues --    0.80578   0.81688   0.82908   0.84945   0.86274
 Alpha virt. eigenvalues --    0.87050   0.89742   0.91881   0.93136   0.93480
 Alpha virt. eigenvalues --    0.94575   0.95585   0.95893   0.98530   0.99826
 Alpha virt. eigenvalues --    1.01087   1.01456   1.02786   1.03509   1.04421
 Alpha virt. eigenvalues --    1.05910   1.07606   1.10022   1.11416   1.11819
 Alpha virt. eigenvalues --    1.12518   1.13985   1.15013   1.17002   1.19125
 Alpha virt. eigenvalues --    1.21512   1.22309   1.23184   1.24497   1.25209
 Alpha virt. eigenvalues --    1.26715   1.27274   1.28467   1.29995   1.31331
 Alpha virt. eigenvalues --    1.33345   1.35672   1.37284   1.37680   1.38337
 Alpha virt. eigenvalues --    1.39610   1.41747   1.45034   1.45609   1.47345
 Alpha virt. eigenvalues --    1.48483   1.49473   1.49705   1.53941   1.56529
 Alpha virt. eigenvalues --    1.59984   1.63384   1.65315   1.70134   1.71695
 Alpha virt. eigenvalues --    1.73643   1.74841   1.77694   1.80449   1.83556
 Alpha virt. eigenvalues --    1.87174   1.87701   1.90610   1.91975   1.94821
 Alpha virt. eigenvalues --    2.01138   2.03357   2.03896   2.04910   2.06123
 Alpha virt. eigenvalues --    2.09433   2.15201   2.25945   2.29417   2.35297
 Alpha virt. eigenvalues --    2.42103   2.45675   2.48626   2.49511   2.54200
 Alpha virt. eigenvalues --    2.57639   2.67525   2.68910   2.72487   2.83023
 Alpha virt. eigenvalues --    2.98820   2.99373   3.02006   3.02836   3.04231
 Alpha virt. eigenvalues --    3.09011   3.10260   3.12509   3.22260   3.22892
 Alpha virt. eigenvalues --    3.26437   3.45090   3.45761   3.47551   3.48215
 Alpha virt. eigenvalues --    3.50267   3.50975   3.54428   3.57210   3.59281
 Alpha virt. eigenvalues --    3.73156   3.90933   3.91174   3.92744   3.99107
 Alpha virt. eigenvalues --    4.00443   4.01735   4.02341   4.03127   4.04023
 Alpha virt. eigenvalues --    4.04904   4.05222   4.06412   4.09327   4.13789
 Alpha virt. eigenvalues --    4.17589   4.18178   4.20262   4.21470   4.29114
 Alpha virt. eigenvalues --    4.33085   4.35909   4.37799   4.40185   4.42209
 Alpha virt. eigenvalues --    4.44804   4.47195   4.48428   4.49119   4.52056
 Alpha virt. eigenvalues --    4.53755   4.57862   4.60277   4.61203   4.65751
 Alpha virt. eigenvalues --    4.80121   4.83380   4.89118   4.89656   4.90350
 Alpha virt. eigenvalues --    4.92469   4.92892   4.93927   5.02515   5.02776
 Alpha virt. eigenvalues --    5.13525   5.14271   5.15970   5.16626   5.16966
 Alpha virt. eigenvalues --    5.19728   5.29375   5.30786   5.31584   5.40800
 Alpha virt. eigenvalues --    5.43949   5.47376   5.48248   5.51107   5.57083
 Alpha virt. eigenvalues --    5.62868   5.63675   5.67505   6.13625   6.13973
 Alpha virt. eigenvalues --    6.16252   6.23556   6.23754   6.80451   6.81142
 Alpha virt. eigenvalues --    6.89321   6.98256   7.65019   7.66924   7.68089
 Alpha virt. eigenvalues --    8.03087   8.05574   8.11542  10.31780  15.18767
 Alpha virt. eigenvalues --   52.49631
          Condensed to atoms (all electrons):
 Mulliken charges:
               1
     1  C    0.508657
     2  H   -0.344707
     3  H   -0.029857
     4  H   -0.083371
     5  H   -0.074846
     6  C   -0.005837
     7  H    0.001106
     8  H    0.000512
     9  H    0.033443
    10  H   -0.005101
 Sum of Mulliken charges =   0.00000
 Mulliken charges with hydrogens summed into heavy atoms:
               1
     1  C   -0.024123
     6  C    0.024123
 Electronic spatial extent (au):  <R**2>=             35.5895
 Charge=              0.0000 electrons
 Dipole moment (field-independent basis, Debye):
    X=              0.0000    Y=              0.0001    Z=              0.0004  Tot=              0.0004

 Test job not archived.
 1\1\GINC-CHIMERA-NODE31\SP\RM05\Gen\C2H8\CONNORNM\08-Dec-2018\0\\#T M0
 5/Gen test Massage SCF=(tight,maxcyc=40)\\M05 opt\\0,1\C,0,0.,0.,0.\H,
 0,0.27585259,0.,-1.07232985\H,0,0.91882895,0.02189845,0.61746237\H,0,-
 0.61570741,0.89291156,0.22270899\H,0,-0.57897413,-0.91481001,0.2321584
 8\C,0,0.,0.,3.81493359\H,0,-0.78678008,0.72247825,4.106461\H,0,0.11110
 452,-0.76465434,4.60799442\H,0,-0.28466206,-0.49227705,2.86487213\H,0,
 0.96033762,0.53445314,3.6804068\\Version=AS64L-G09RevD.01\HF=-45.87999
 66\RMSD=5.638e-09\Dipole=0.0000137,0.0000496,0.0001624\Quadrupole=-0.0
 006951,-0.0006373,0.0013324,-0.0000372,-0.0002742,-0.0000274\PG=C01 [X
 (C2H8)]\\@


 ERROR IS THE FORCE THAT WELDS MEN TOGETHER....
 TRUTH IS COMMUNICATED TO MEN ONLY BY DEEDS OF TRUTH.
           TOLSTOI,MY RELIGION
 Job cpu time:       0 days  0 hours 16 minutes 26.0 seconds.
 File lengths (MBytes):  RWF=     41 Int=      0 D2E=      0 Chk=      4 Scr=      1
 Normal termination of Gaussian 09 at Sat Dec  8 14:06:41 2018.
