 Entering Gaussian System, Link 0=/data/szalewicgrp/connornm/opt/Gaussian/g09-M05-par/g09/g09
 AtFile(1): aug-cc-pVTZ.gbs
 Initial command:
 /data/szalewicgrp/connornm/opt/Gaussian/g09-M05-par/g09/l1.exe "/scratch/local/Gau-25588.inp" -scrdir="/scratch/local/"
 Entering Link 1 = /data/szalewicgrp/connornm/opt/Gaussian/g09-M05-par/g09/l1.exe PID=     25589.
  
 Copyright (c) 1988,1990,1992,1993,1995,1998,2003,2009,2013,
            Gaussian, Inc.  All Rights Reserved.
  
 This is part of the Gaussian(R) 09 program.  It is based on
 the Gaussian(R) 03 system (copyright 2003, Gaussian, Inc.),
 the Gaussian(R) 98 system (copyright 1998, Gaussian, Inc.),
 the Gaussian(R) 94 system (copyright 1995, Gaussian, Inc.),
 the Gaussian 92(TM) system (copyright 1992, Gaussian, Inc.),
 the Gaussian 90(TM) system (copyright 1990, Gaussian, Inc.),
 the Gaussian 88(TM) system (copyright 1988, Gaussian, Inc.),
 the Gaussian 86(TM) system (copyright 1986, Carnegie Mellon
 University), and the Gaussian 82(TM) system (copyright 1983,
 Carnegie Mellon University). Gaussian is a federally registered
 trademark of Gaussian, Inc.
  
 This software contains proprietary and confidential information,
 including trade secrets, belonging to Gaussian, Inc.
  
 This software is provided under written license and may be
 used, copied, transmitted, or stored only in accord with that
 written license.
  
 The following legend is applicable only to US Government
 contracts under FAR:
  
                    RESTRICTED RIGHTS LEGEND
  
 Use, reproduction and disclosure by the US Government is
 subject to restrictions as set forth in subparagraphs (a)
 and (c) of the Commercial Computer Software - Restricted
 Rights clause in FAR 52.227-19.
  
 Gaussian, Inc.
 340 Quinnipiac St., Bldg. 40, Wallingford CT 06492
  
  
 ---------------------------------------------------------------
 Warning -- This program may not be used in any manner that
 competes with the business of Gaussian, Inc. or will provide
 assistance to any competitor of Gaussian, Inc.  The licensee
 of this program is prohibited from giving any competitor of
 Gaussian, Inc. access to this program.  By using this program,
 the user acknowledges that Gaussian, Inc. is engaged in the
 business of creating and licensing software in the field of
 computational chemistry and represents and warrants to the
 licensee that it is not a competitor of Gaussian, Inc. and that
 it will not use this program in any manner prohibited above.
 ---------------------------------------------------------------
  

 Cite this work as:
 Gaussian 09, Revision D.01,
 M. J. Frisch, G. W. Trucks, H. B. Schlegel, G. E. Scuseria, 
 M. A. Robb, J. R. Cheeseman, G. Scalmani, V. Barone, B. Mennucci, 
 G. A. Petersson, H. Nakatsuji, M. Caricato, X. Li, H. P. Hratchian, 
 A. F. Izmaylov, J. Bloino, G. Zheng, J. L. Sonnenberg, M. Hada, 
 M. Ehara, K. Toyota, R. Fukuda, J. Hasegawa, M. Ishida, T. Nakajima, 
 Y. Honda, O. Kitao, H. Nakai, T. Vreven, J. A. Montgomery, Jr., 
 J. E. Peralta, F. Ogliaro, M. Bearpark, J. J. Heyd, E. Brothers, 
 K. N. Kudin, V. N. Staroverov, T. Keith, R. Kobayashi, J. Normand, 
 K. Raghavachari, A. Rendell, J. C. Burant, S. S. Iyengar, J. Tomasi, 
 M. Cossi, N. Rega, J. M. Millam, M. Klene, J. E. Knox, J. B. Cross, 
 V. Bakken, C. Adamo, J. Jaramillo, R. Gomperts, R. E. Stratmann, 
 O. Yazyev, A. J. Austin, R. Cammi, C. Pomelli, J. W. Ochterski, 
 R. L. Martin, K. Morokuma, V. G. Zakrzewski, G. A. Voth, 
 P. Salvador, J. J. Dannenberg, S. Dapprich, A. D. Daniels, 
 O. Farkas, J. B. Foresman, J. V. Ortiz, J. Cioslowski, 
 and D. J. Fox, Gaussian, Inc., Wallingford CT, 2013.
 
 ******************************************
 Gaussian 09:  AS64L-G09RevD.01 24-Apr-2013
                 7-Dec-2018 
 ******************************************
 %Chk=CH400220
 %Mem=2GB
 %NProcShared=16
 Will use up to   16 processors via shared memory.
 ---------------------------------------------
 #T M05/Gen test Massage SCF=(tight,maxcyc=40)
 ---------------------------------------------
 -------
 M05 opt
 -------
 Symbolic Z-matrix:
 Charge =  0 Multiplicity = 1
 6                     0.        0.        0. 
 1                     1.06486   0.        0.30341 
 1                    -0.48155  -0.93612   0.34318 
 1                    -0.51381   0.86816   0.45638 
 1                    -0.0695    0.06796  -1.10297 
 6-Bq                  0.        0.        2.69549 
 1-Bq                  0.59062  -0.76237   2.15148 
 1-Bq                  0.39167   1.00828   2.45894 
 1-Bq                 -1.06122  -0.06558   2.38645 
 1-Bq                  0.07892  -0.18033   3.78509 
 
                    Distance matrix (angstroms):
                    1          2          3          4          5
     1  C    0.000000
     2  H    1.107242   0.000000
     3  H    1.107242   1.808119   0.000000
     4  H    1.107242   1.808119   1.808119   0.000000
     5  H    1.107242   1.808119   1.808119   1.808119   0.000000
     6  C    2.695490   2.618392   2.577128   2.455873   3.799701
     7  H    2.357735   2.054624   2.109433   2.598415   3.422959
     8  H    2.686334   2.473075   3.003270   2.202214   3.712685
     9  H    2.612587   2.977172   2.295389   2.212846   3.630061
    10  H    3.790209   3.623082   3.568213   3.539916   4.896614
                    6          7          8          9         10
     6  C    0.000000
     7  H    1.107243   0.000000
     8  H    1.107243   1.808119   0.000000
     9  H    1.107243   1.808119   1.808119   0.000000
    10  H    1.107243   1.808119   1.808119   1.808119   0.000000
 Symmetry turned off by external request.
 This structure is nearly, but not quite of a higher symmetry.
 Consider Symm=Loose if the higher symmetry is desired.
 Framework group  C1[X(C2H8)]
 Deg. of freedom    24
 Rotational constants (GHZ):     76.6916055      7.7955956      7.7955956
   276 basis functions,   360 primitive gaussians,   310 cartesian basis functions
     5 alpha electrons        5 beta electrons
       nuclear repulsion energy        13.2261670164 Hartrees.
 IMHF & INEx in M05                  614413                  385587
 NAtoms=   10 NActive=   10 NUniq=   10 SFac= 1.00D+00 NAtFMM=   60 NAOKFM=F Big=F
 ExpMin= 2.53D-02 ExpMax= 8.24D+03 ExpMxC= 2.81D+02 IAcc=3 IRadAn=         5 AccDes= 0.00D+00
 Harris functional with IExCor= 1009 and IRadAn=       5 diagonalized for initial guess.
 HarFok:  IExCor= 1009 AccDes= 0.00D+00 IRadAn=         5 IDoV= 1 UseB2=F ITyADJ=14
 ICtDFT=  3500011 ScaDFX=  1.000000  1.000000  1.000000  1.000000
 FoFCou: FMM=F IPFlag=           0 FMFlag=      100000 FMFlg1=           0
         NFxFlg=           0 DoJE=T BraDBF=F KetDBF=T FulRan=T
         wScrn=  0.000000 ICntrl=     500 IOpCl=  0 I1Cent=   200000004 NGrid=           0
         NMat0=    1 NMatS0=      1 NMatT0=    0 NMatD0=    1 NMtDS0=    0 NMtDT0=    0
 Symmetry not used in FoFCou.
 SCF Done:  E(RM05) =  -40.9123002726     A.U. after    8 cycles
            NFock=  8  Conv=0.15D-08     -V/T= 2.0127

 **********************************************************************

            Population analysis using the SCF density.

 **********************************************************************

 Alpha  occ. eigenvalues --  -10.74532  -0.82769  -0.48753  -0.48753  -0.48752
 Alpha virt. eigenvalues --   -0.00124   0.02329   0.02809   0.02832   0.04603
 Alpha virt. eigenvalues --    0.05613   0.05654   0.07123   0.08023   0.08064
 Alpha virt. eigenvalues --    0.08428   0.10674   0.10862   0.10965   0.13120
 Alpha virt. eigenvalues --    0.14957   0.16312   0.16712   0.17409   0.17581
 Alpha virt. eigenvalues --    0.22716   0.23600   0.23702   0.24022   0.25122
 Alpha virt. eigenvalues --    0.25904   0.26009   0.27919   0.28040   0.28301
 Alpha virt. eigenvalues --    0.29383   0.30969   0.31316   0.32247   0.33544
 Alpha virt. eigenvalues --    0.35580   0.35905   0.36391   0.36612   0.37631
 Alpha virt. eigenvalues --    0.38024   0.38217   0.39891   0.40199   0.41806
 Alpha virt. eigenvalues --    0.42326   0.44458   0.44677   0.45174   0.47843
 Alpha virt. eigenvalues --    0.48412   0.49414   0.50090   0.52222   0.52881
 Alpha virt. eigenvalues --    0.54496   0.56043   0.56876   0.59321   0.62208
 Alpha virt. eigenvalues --    0.62799   0.66776   0.67002   0.67645   0.70319
 Alpha virt. eigenvalues --    0.74245   0.75203   0.75440   0.77896   0.79226
 Alpha virt. eigenvalues --    0.79999   0.83748   0.84256   0.85761   0.85776
 Alpha virt. eigenvalues --    0.86682   0.88817   0.89648   0.92086   0.94648
 Alpha virt. eigenvalues --    0.94961   0.96530   0.97086   0.98842   1.00942
 Alpha virt. eigenvalues --    1.02035   1.02250   1.03080   1.03825   1.03973
 Alpha virt. eigenvalues --    1.04924   1.05917   1.06969   1.08871   1.09751
 Alpha virt. eigenvalues --    1.10483   1.11731   1.12784   1.13546   1.13778
 Alpha virt. eigenvalues --    1.15823   1.17818   1.20528   1.24065   1.25805
 Alpha virt. eigenvalues --    1.26491   1.28017   1.29544   1.30215   1.33517
 Alpha virt. eigenvalues --    1.36064   1.36086   1.37156   1.40451   1.42186
 Alpha virt. eigenvalues --    1.43393   1.43729   1.44864   1.47352   1.49323
 Alpha virt. eigenvalues --    1.50114   1.52960   1.54870   1.55098   1.57354
 Alpha virt. eigenvalues --    1.59850   1.62163   1.62703   1.64352   1.66284
 Alpha virt. eigenvalues --    1.69364   1.71046   1.73319   1.74067   1.77179
 Alpha virt. eigenvalues --    1.78038   1.80578   1.87386   1.88094   1.88317
 Alpha virt. eigenvalues --    1.89646   1.90456   1.92732   1.94047   1.97677
 Alpha virt. eigenvalues --    1.98732   1.99944   2.00988   2.03090   2.06014
 Alpha virt. eigenvalues --    2.07557   2.09106   2.14688   2.15863   2.18330
 Alpha virt. eigenvalues --    2.19983   2.30283   2.31931   2.36957   2.42707
 Alpha virt. eigenvalues --    2.46029   2.48702   2.64101   2.65149   2.73695
 Alpha virt. eigenvalues --    2.82207   2.96524   2.97978   3.03939   3.13227
 Alpha virt. eigenvalues --    3.21643   3.26912   3.28274   3.31004   3.31940
 Alpha virt. eigenvalues --    3.37303   3.39212   3.53536   3.59417   3.60306
 Alpha virt. eigenvalues --    3.66326   3.73083   3.73817   3.75435   3.81913
 Alpha virt. eigenvalues --    3.82569   3.83729   3.86454   3.87954   3.92478
 Alpha virt. eigenvalues --    3.93927   3.98191   4.04759   4.05803   4.12618
 Alpha virt. eigenvalues --    4.14267   4.18039   4.19718   4.20193   4.23216
 Alpha virt. eigenvalues --    4.24885   4.26297   4.29824   4.33021   4.34425
 Alpha virt. eigenvalues --    4.37511   4.38501   4.42860   4.44053   4.45398
 Alpha virt. eigenvalues --    4.46774   4.47628   4.50489   4.51019   4.54263
 Alpha virt. eigenvalues --    4.63162   4.66741   4.67504   4.71228   4.75793
 Alpha virt. eigenvalues --    4.80318   4.82284   4.83249   4.85525   4.86898
 Alpha virt. eigenvalues --    4.93084   4.94175   5.01920   5.07312   5.12486
 Alpha virt. eigenvalues --    5.16805   5.18935   5.19798   5.24191   5.24776
 Alpha virt. eigenvalues --    5.27066   5.28876   5.30804   5.32563   5.33831
 Alpha virt. eigenvalues --    5.36774   5.40332   5.40879   5.46746   5.47704
 Alpha virt. eigenvalues --    5.51639   5.54617   5.61391   5.63230   5.73160
 Alpha virt. eigenvalues --    6.07659   6.09060   6.10928   6.11850   6.14877
 Alpha virt. eigenvalues --    6.17970   6.19090   6.25092   6.77995   6.81511
 Alpha virt. eigenvalues --    6.84507   6.99824   7.60189   7.60557   7.66838
 Alpha virt. eigenvalues --    8.02302   8.05524   8.14869  10.51854  17.42347
 Alpha virt. eigenvalues --   53.18431
          Condensed to atoms (all electrons):
 Mulliken charges:
               1
     1  C   -2.081650
     2  H    0.527672
     3  H    0.516510
     4  H    0.530579
     5  H    0.475357
     6  C   -0.007470
     7  H    0.019342
     8  H    0.011562
     9  H    0.016883
    10  H   -0.008787
 Sum of Mulliken charges =  -0.00000
 Mulliken charges with hydrogens summed into heavy atoms:
               1
     1  C   -0.031531
     6  C    0.031531
 Electronic spatial extent (au):  <R**2>=             36.5413
 Charge=             -0.0000 electrons
 Dipole moment (field-independent basis, Debye):
    X=              0.0000    Y=             -0.0000    Z=              0.0001  Tot=              0.0001

 Test job not archived.
 1\1\GINC-CHIMERA-NODE14\SP\RM05\Gen\C2H8\CONNORNM\07-Dec-2018\0\\#T M0
 5/Gen test Massage SCF=(tight,maxcyc=40)\\M05 opt\\0,1\C,0,0.,0.,0.\H,
 0,1.06486086,0.,0.30340946\H,0,-0.48155146,-0.93612142,0.34317755\H,0,
 -0.51380617,0.86816255,0.45638028\H,0,-0.06950324,0.06795887,-1.102967
 29\C,0,0.,0.,2.6954898\H,0,0.59062195,-0.76236902,2.15148139\H,0,0.391
 67093,1.00827671,2.45893555\H,0,-1.06121569,-0.06557706,2.38644794\H,0
 ,0.07892281,-0.18033064,3.78509432\\Version=AS64L-G09RevD.01\HF=-40.91
 23003\RMSD=1.459e-09\Dipole=0.000012,-0.0000047,0.0000542\Quadrupole=-
 0.0006062,-0.0002827,0.0008889,-0.0001795,0.0000517,-0.0001492\PG=C01 
 [X(C2H8)]\\@


 SCIENCE IS A VERY HUMAN FORM OF KNOWLEDGE.
 WE ARE ALWAYS AT THE BRINK OF THE KNOWN,
 WE ALWAYS FEEL FORWARD FOR WHAT IS HOPED.
 EVERY JUDGEMENT IN SCIENCE STANDS ON THE EDGE OF ERROR, AND IS PERSONAL.
 SCIENCE IS A TRIBUTE TO WHAT WE CAN KNOW ALTHOUGH WE ARE FALLIBLE.

                     -- J. BRONOWSKI
 Job cpu time:       0 days  0 hours 15 minutes  3.2 seconds.
 File lengths (MBytes):  RWF=     41 Int=      0 D2E=      0 Chk=      4 Scr=      1
 Normal termination of Gaussian 09 at Fri Dec  7 13:59:09 2018.
