 Entering Gaussian System, Link 0=/data/szalewicgrp/connornm/opt/Gaussian/g09-M05-par/g09/g09
 AtFile(1): aug-cc-pVTZ.gbs
 Initial command:
 /data/szalewicgrp/connornm/opt/Gaussian/g09-M05-par/g09/l1.exe "/scratch/local/Gau-28791.inp" -scrdir="/scratch/local/"
 Entering Link 1 = /data/szalewicgrp/connornm/opt/Gaussian/g09-M05-par/g09/l1.exe PID=     28792.
  
 Copyright (c) 1988,1990,1992,1993,1995,1998,2003,2009,2013,
            Gaussian, Inc.  All Rights Reserved.
  
 This is part of the Gaussian(R) 09 program.  It is based on
 the Gaussian(R) 03 system (copyright 2003, Gaussian, Inc.),
 the Gaussian(R) 98 system (copyright 1998, Gaussian, Inc.),
 the Gaussian(R) 94 system (copyright 1995, Gaussian, Inc.),
 the Gaussian 92(TM) system (copyright 1992, Gaussian, Inc.),
 the Gaussian 90(TM) system (copyright 1990, Gaussian, Inc.),
 the Gaussian 88(TM) system (copyright 1988, Gaussian, Inc.),
 the Gaussian 86(TM) system (copyright 1986, Carnegie Mellon
 University), and the Gaussian 82(TM) system (copyright 1983,
 Carnegie Mellon University). Gaussian is a federally registered
 trademark of Gaussian, Inc.
  
 This software contains proprietary and confidential information,
 including trade secrets, belonging to Gaussian, Inc.
  
 This software is provided under written license and may be
 used, copied, transmitted, or stored only in accord with that
 written license.
  
 The following legend is applicable only to US Government
 contracts under FAR:
  
                    RESTRICTED RIGHTS LEGEND
  
 Use, reproduction and disclosure by the US Government is
 subject to restrictions as set forth in subparagraphs (a)
 and (c) of the Commercial Computer Software - Restricted
 Rights clause in FAR 52.227-19.
  
 Gaussian, Inc.
 340 Quinnipiac St., Bldg. 40, Wallingford CT 06492
  
  
 ---------------------------------------------------------------
 Warning -- This program may not be used in any manner that
 competes with the business of Gaussian, Inc. or will provide
 assistance to any competitor of Gaussian, Inc.  The licensee
 of this program is prohibited from giving any competitor of
 Gaussian, Inc. access to this program.  By using this program,
 the user acknowledges that Gaussian, Inc. is engaged in the
 business of creating and licensing software in the field of
 computational chemistry and represents and warrants to the
 licensee that it is not a competitor of Gaussian, Inc. and that
 it will not use this program in any manner prohibited above.
 ---------------------------------------------------------------
  

 Cite this work as:
 Gaussian 09, Revision D.01,
 M. J. Frisch, G. W. Trucks, H. B. Schlegel, G. E. Scuseria, 
 M. A. Robb, J. R. Cheeseman, G. Scalmani, V. Barone, B. Mennucci, 
 G. A. Petersson, H. Nakatsuji, M. Caricato, X. Li, H. P. Hratchian, 
 A. F. Izmaylov, J. Bloino, G. Zheng, J. L. Sonnenberg, M. Hada, 
 M. Ehara, K. Toyota, R. Fukuda, J. Hasegawa, M. Ishida, T. Nakajima, 
 Y. Honda, O. Kitao, H. Nakai, T. Vreven, J. A. Montgomery, Jr., 
 J. E. Peralta, F. Ogliaro, M. Bearpark, J. J. Heyd, E. Brothers, 
 K. N. Kudin, V. N. Staroverov, T. Keith, R. Kobayashi, J. Normand, 
 K. Raghavachari, A. Rendell, J. C. Burant, S. S. Iyengar, J. Tomasi, 
 M. Cossi, N. Rega, J. M. Millam, M. Klene, J. E. Knox, J. B. Cross, 
 V. Bakken, C. Adamo, J. Jaramillo, R. Gomperts, R. E. Stratmann, 
 O. Yazyev, A. J. Austin, R. Cammi, C. Pomelli, J. W. Ochterski, 
 R. L. Martin, K. Morokuma, V. G. Zakrzewski, G. A. Voth, 
 P. Salvador, J. J. Dannenberg, S. Dapprich, A. D. Daniels, 
 O. Farkas, J. B. Foresman, J. V. Ortiz, J. Cioslowski, 
 and D. J. Fox, Gaussian, Inc., Wallingford CT, 2013.
 
 ******************************************
 Gaussian 09:  AS64L-G09RevD.01 24-Apr-2013
                 8-Dec-2018 
 ******************************************
 %Chk=CH400066
 %Mem=2GB
 %NProcShared=16
 Will use up to   16 processors via shared memory.
 ---------------------------------------------
 #T M05/Gen test Massage SCF=(tight,maxcyc=40)
 ---------------------------------------------
 -------
 M05 opt
 -------
 Symbolic Z-matrix:
 Charge =  0 Multiplicity = 1
 6                     0.        0.        0. 
 1                     1.05381   0.       -0.3398 
 1                    -0.67039   0.09196  -0.87641 
 1                    -0.21615  -0.94653   0.53231 
 1                    -0.16727   0.85456   0.68391 
 6-Bq                  0.        0.        3.77453 
 1-Bq                  1.03473  -0.24864   3.46874 
 1-Bq                  0.01245   0.89667   4.42399 
 1-Bq                 -0.61175   0.20458   2.87458 
 1-Bq                 -0.43543  -0.85261   4.3308 
 
                    Distance matrix (angstroms):
                    1          2          3          4          5
     1  C    0.000000
     2  H    1.107242   0.000000
     3  H    1.107242   1.808119   0.000000
     4  H    1.107243   1.808119   1.808119   0.000000
     5  H    1.107242   1.808119   1.808119   1.808119   0.000000
     6  C    3.774528   4.247145   4.699908   3.384465   3.210951
     7  H    3.628311   3.816698   4.680150   3.267164   3.227561
     8  H    4.513967   4.958046   5.404457   4.312173   3.744640
     9  H    2.946066   3.626045   3.753144   2.639652   2.327898
    10  H    4.435352   4.975871   5.297401   3.805968   4.035614
                    6          7          8          9         10
     6  C    0.000000
     7  H    1.107243   0.000000
     8  H    1.107242   1.808119   0.000000
     9  H    1.107242   1.808119   1.808119   0.000000
    10  H    1.107242   1.808119   1.808119   1.808119   0.000000
 Symmetry turned off by external request.
 This structure is nearly, but not quite of a higher symmetry.
 Consider Symm=Loose if the higher symmetry is desired.
 Framework group  C1[X(C2H8)]
 Deg. of freedom    24
 Rotational constants (GHZ):     76.6916057      4.1839748      4.1839748
   276 basis functions,   360 primitive gaussians,   310 cartesian basis functions
     5 alpha electrons        5 beta electrons
       nuclear repulsion energy        13.2261670316 Hartrees.
 IMHF & INEx in M05                  614413                  385587
 NAtoms=   10 NActive=   10 NUniq=   10 SFac= 1.00D+00 NAtFMM=   60 NAOKFM=F Big=F
 ExpMin= 2.53D-02 ExpMax= 8.24D+03 ExpMxC= 2.81D+02 IAcc=3 IRadAn=         5 AccDes= 0.00D+00
 Harris functional with IExCor= 1009 and IRadAn=       5 diagonalized for initial guess.
 HarFok:  IExCor= 1009 AccDes= 0.00D+00 IRadAn=         5 IDoV= 1 UseB2=F ITyADJ=14
 ICtDFT=  3500011 ScaDFX=  1.000000  1.000000  1.000000  1.000000
 FoFCou: FMM=F IPFlag=           0 FMFlag=      100000 FMFlg1=           0
         NFxFlg=           0 DoJE=T BraDBF=F KetDBF=T FulRan=T
         wScrn=  0.000000 ICntrl=     500 IOpCl=  0 I1Cent=   200000004 NGrid=           0
         NMat0=    1 NMatS0=      1 NMatT0=    0 NMatD0=    1 NMtDS0=    0 NMtDT0=    0
 Symmetry not used in FoFCou.
 SCF Done:  E(RM05) =  -45.9509877282     A.U. after   10 cycles
            NFock= 10  Conv=0.44D-08     -V/T= 2.0338

 **********************************************************************

            Population analysis using the SCF density.

 **********************************************************************

 Alpha  occ. eigenvalues --  -12.07072  -0.99695  -0.71487  -0.71486  -0.71483
 Alpha virt. eigenvalues --   -0.09141  -0.01916  -0.01910  -0.01905  -0.00674
 Alpha virt. eigenvalues --   -0.00547  -0.00434   0.03007   0.03853   0.04835
 Alpha virt. eigenvalues --    0.05306   0.05826   0.05930   0.07151   0.07860
 Alpha virt. eigenvalues --    0.08195   0.08972   0.10856   0.12294   0.12588
 Alpha virt. eigenvalues --    0.14592   0.16416   0.19165   0.19876   0.20268
 Alpha virt. eigenvalues --    0.20525   0.21685   0.21925   0.22382   0.22951
 Alpha virt. eigenvalues --    0.23247   0.24640   0.25078   0.25262   0.26414
 Alpha virt. eigenvalues --    0.26647   0.27656   0.28275   0.29101   0.30870
 Alpha virt. eigenvalues --    0.32960   0.33844   0.34344   0.35091   0.36084
 Alpha virt. eigenvalues --    0.36989   0.37139   0.37705   0.40256   0.41619
 Alpha virt. eigenvalues --    0.42401   0.42744   0.45042   0.46953   0.47582
 Alpha virt. eigenvalues --    0.48361   0.49959   0.51045   0.53125   0.54749
 Alpha virt. eigenvalues --    0.56539   0.57030   0.57544   0.57890   0.59334
 Alpha virt. eigenvalues --    0.61565   0.62680   0.64194   0.65104   0.65584
 Alpha virt. eigenvalues --    0.66493   0.69176   0.70224   0.70939   0.72953
 Alpha virt. eigenvalues --    0.73322   0.74441   0.76582   0.78405   0.79498
 Alpha virt. eigenvalues --    0.80344   0.82285   0.84891   0.85345   0.85957
 Alpha virt. eigenvalues --    0.88503   0.90017   0.91620   0.92509   0.93346
 Alpha virt. eigenvalues --    0.94770   0.95318   0.96144   1.00240   1.00663
 Alpha virt. eigenvalues --    1.00940   1.02553   1.03664   1.03995   1.06084
 Alpha virt. eigenvalues --    1.07397   1.08525   1.09002   1.10229   1.11081
 Alpha virt. eigenvalues --    1.12284   1.14925   1.15333   1.17608   1.19675
 Alpha virt. eigenvalues --    1.20803   1.22449   1.23629   1.24608   1.26023
 Alpha virt. eigenvalues --    1.26099   1.27162   1.29929   1.31731   1.33676
 Alpha virt. eigenvalues --    1.34265   1.35126   1.36629   1.37410   1.38501
 Alpha virt. eigenvalues --    1.39256   1.40379   1.43307   1.45298   1.47557
 Alpha virt. eigenvalues --    1.48735   1.49353   1.50030   1.51724   1.56379
 Alpha virt. eigenvalues --    1.59347   1.65537   1.69713   1.70635   1.72883
 Alpha virt. eigenvalues --    1.74431   1.75558   1.79523   1.80965   1.85197
 Alpha virt. eigenvalues --    1.86866   1.89029   1.89795   1.92575   1.97051
 Alpha virt. eigenvalues --    2.01471   2.02454   2.03203   2.05442   2.07687
 Alpha virt. eigenvalues --    2.09339   2.14266   2.28106   2.29502   2.31162
 Alpha virt. eigenvalues --    2.32778   2.46336   2.47274   2.50322   2.51752
 Alpha virt. eigenvalues --    2.58261   2.67912   2.68640   2.71120   2.82703
 Alpha virt. eigenvalues --    2.98915   2.99589   3.00280   3.02518   3.04128
 Alpha virt. eigenvalues --    3.07047   3.08366   3.15249   3.22228   3.22752
 Alpha virt. eigenvalues --    3.23521   3.44106   3.45445   3.46492   3.47002
 Alpha virt. eigenvalues --    3.51120   3.51988   3.53303   3.54993   3.61826
 Alpha virt. eigenvalues --    3.69782   3.89865   3.91528   3.92492   3.98198
 Alpha virt. eigenvalues --    4.00817   4.01431   4.02018   4.03237   4.03634
 Alpha virt. eigenvalues --    4.04954   4.05697   4.07032   4.08911   4.12889
 Alpha virt. eigenvalues --    4.17466   4.17877   4.20500   4.25660   4.29680
 Alpha virt. eigenvalues --    4.29754   4.35910   4.37046   4.40900   4.43609
 Alpha virt. eigenvalues --    4.45957   4.46804   4.46967   4.48912   4.50536
 Alpha virt. eigenvalues --    4.53006   4.57859   4.60092   4.60544   4.67972
 Alpha virt. eigenvalues --    4.76662   4.82571   4.89011   4.89534   4.91157
 Alpha virt. eigenvalues --    4.91851   4.92734   4.96302   5.01877   5.02998
 Alpha virt. eigenvalues --    5.12452   5.13446   5.16123   5.16291   5.18443
 Alpha virt. eigenvalues --    5.20442   5.29655   5.29919   5.32025   5.41219
 Alpha virt. eigenvalues --    5.44384   5.47678   5.47869   5.49711   5.52582
 Alpha virt. eigenvalues --    5.62353   5.62856   5.67032   6.13421   6.13502
 Alpha virt. eigenvalues --    6.17341   6.23018   6.23357   6.80441   6.81529
 Alpha virt. eigenvalues --    6.86644   6.97534   7.64031   7.67294   7.67827
 Alpha virt. eigenvalues --    8.04334   8.06192   8.09940  10.29487  14.92394
 Alpha virt. eigenvalues --   52.42232
          Condensed to atoms (all electrons):
 Mulliken charges:
               1
     1  C    0.321695
     2  H   -0.140945
     3  H   -0.309278
     4  H    0.029015
     5  H    0.027456
     6  C    0.002784
     7  H   -0.015010
     8  H    0.000162
     9  H    0.083817
    10  H    0.000303
 Sum of Mulliken charges =  -0.00000
 Mulliken charges with hydrogens summed into heavy atoms:
               1
     1  C   -0.072057
     6  C    0.072057
 Electronic spatial extent (au):  <R**2>=             35.5796
 Charge=             -0.0000 electrons
 Dipole moment (field-independent basis, Debye):
    X=              0.0005    Y=              0.0001    Z=              0.0000  Tot=              0.0005

 Test job not archived.
 1\1\GINC-CHIMERA-NODE31\SP\RM05\Gen\C2H8\CONNORNM\08-Dec-2018\0\\#T M0
 5/Gen test Massage SCF=(tight,maxcyc=40)\\M05 opt\\0,1\C,0,0.,0.,0.\H,
 0,1.05381208,0.,-0.33980295\H,0,-0.67039451,0.09196073,-0.87641336\H,0
 ,-0.2161497,-0.94652542,0.5323109\H,0,-0.16726787,0.85456468,0.6839054
 1\C,0,0.,0.,3.77452784\H,0,1.03472733,-0.24863506,3.46874046\H,0,0.012
 44882,0.89667475,4.42399329\H,0,-0.61174528,0.20457509,2.8745819\H,0,-
 0.43543087,-0.85261478,4.33079571\\Version=AS64L-G09RevD.01\HF=-45.950
 9877\RMSD=4.368e-09\Dipole=0.0001897,0.0000303,0.000005\Quadrupole=-0.
 0012304,-0.0013462,0.0025766,-0.0000316,-0.000491,-0.0002792\PG=C01 [X
 (C2H8)]\\@


 LIFE IS A CONTINUAL STRUGGLE AGAINST THE TENDENCY TO PRODUCE ENTROPY.
 Job cpu time:       0 days  0 hours 16 minutes 28.9 seconds.
 File lengths (MBytes):  RWF=     41 Int=      0 D2E=      0 Chk=      4 Scr=      1
 Normal termination of Gaussian 09 at Sat Dec  8 15:16:23 2018.
