 Entering Gaussian System, Link 0=/data/szalewicgrp/connornm/opt/Gaussian/g09-M05-par/g09/g09
 AtFile(1): aug-cc-pVTZ.gbs
 Initial command:
 /data/szalewicgrp/connornm/opt/Gaussian/g09-M05-par/g09/l1.exe "/scratch/local/Gau-10881.inp" -scrdir="/scratch/local/"
 Entering Link 1 = /data/szalewicgrp/connornm/opt/Gaussian/g09-M05-par/g09/l1.exe PID=     10882.
  
 Copyright (c) 1988,1990,1992,1993,1995,1998,2003,2009,2013,
            Gaussian, Inc.  All Rights Reserved.
  
 This is part of the Gaussian(R) 09 program.  It is based on
 the Gaussian(R) 03 system (copyright 2003, Gaussian, Inc.),
 the Gaussian(R) 98 system (copyright 1998, Gaussian, Inc.),
 the Gaussian(R) 94 system (copyright 1995, Gaussian, Inc.),
 the Gaussian 92(TM) system (copyright 1992, Gaussian, Inc.),
 the Gaussian 90(TM) system (copyright 1990, Gaussian, Inc.),
 the Gaussian 88(TM) system (copyright 1988, Gaussian, Inc.),
 the Gaussian 86(TM) system (copyright 1986, Carnegie Mellon
 University), and the Gaussian 82(TM) system (copyright 1983,
 Carnegie Mellon University). Gaussian is a federally registered
 trademark of Gaussian, Inc.
  
 This software contains proprietary and confidential information,
 including trade secrets, belonging to Gaussian, Inc.
  
 This software is provided under written license and may be
 used, copied, transmitted, or stored only in accord with that
 written license.
  
 The following legend is applicable only to US Government
 contracts under FAR:
  
                    RESTRICTED RIGHTS LEGEND
  
 Use, reproduction and disclosure by the US Government is
 subject to restrictions as set forth in subparagraphs (a)
 and (c) of the Commercial Computer Software - Restricted
 Rights clause in FAR 52.227-19.
  
 Gaussian, Inc.
 340 Quinnipiac St., Bldg. 40, Wallingford CT 06492
  
  
 ---------------------------------------------------------------
 Warning -- This program may not be used in any manner that
 competes with the business of Gaussian, Inc. or will provide
 assistance to any competitor of Gaussian, Inc.  The licensee
 of this program is prohibited from giving any competitor of
 Gaussian, Inc. access to this program.  By using this program,
 the user acknowledges that Gaussian, Inc. is engaged in the
 business of creating and licensing software in the field of
 computational chemistry and represents and warrants to the
 licensee that it is not a competitor of Gaussian, Inc. and that
 it will not use this program in any manner prohibited above.
 ---------------------------------------------------------------
  

 Cite this work as:
 Gaussian 09, Revision D.01,
 M. J. Frisch, G. W. Trucks, H. B. Schlegel, G. E. Scuseria, 
 M. A. Robb, J. R. Cheeseman, G. Scalmani, V. Barone, B. Mennucci, 
 G. A. Petersson, H. Nakatsuji, M. Caricato, X. Li, H. P. Hratchian, 
 A. F. Izmaylov, J. Bloino, G. Zheng, J. L. Sonnenberg, M. Hada, 
 M. Ehara, K. Toyota, R. Fukuda, J. Hasegawa, M. Ishida, T. Nakajima, 
 Y. Honda, O. Kitao, H. Nakai, T. Vreven, J. A. Montgomery, Jr., 
 J. E. Peralta, F. Ogliaro, M. Bearpark, J. J. Heyd, E. Brothers, 
 K. N. Kudin, V. N. Staroverov, T. Keith, R. Kobayashi, J. Normand, 
 K. Raghavachari, A. Rendell, J. C. Burant, S. S. Iyengar, J. Tomasi, 
 M. Cossi, N. Rega, J. M. Millam, M. Klene, J. E. Knox, J. B. Cross, 
 V. Bakken, C. Adamo, J. Jaramillo, R. Gomperts, R. E. Stratmann, 
 O. Yazyev, A. J. Austin, R. Cammi, C. Pomelli, J. W. Ochterski, 
 R. L. Martin, K. Morokuma, V. G. Zakrzewski, G. A. Voth, 
 P. Salvador, J. J. Dannenberg, S. Dapprich, A. D. Daniels, 
 O. Farkas, J. B. Foresman, J. V. Ortiz, J. Cioslowski, 
 and D. J. Fox, Gaussian, Inc., Wallingford CT, 2013.
 
 ******************************************
 Gaussian 09:  AS64L-G09RevD.01 24-Apr-2013
                 8-Dec-2018 
 ******************************************
 %Chk=CH400227
 %Mem=2GB
 %NProcShared=16
 Will use up to   16 processors via shared memory.
 ---------------------------------------------
 #T M05/Gen test Massage SCF=(tight,maxcyc=40)
 ---------------------------------------------
 -------
 M05 opt
 -------
 Symbolic Z-matrix:
 Charge =  0 Multiplicity = 1
 6                     0.        0.        0. 
 1                     0.88863   0.       -0.66055 
 1                    -0.21814   1.03568   0.32521 
 1                    -0.87033  -0.40451  -0.55217 
 1                     0.19984  -0.63118   0.88751 
 6-Bq                  0.        0.        3.71656 
 1-Bq                 -0.95511  -0.08364   3.16271 
 1-Bq                  0.33744   1.05457   3.71325 
 1-Bq                 -0.14822  -0.33681   4.76087 
 1-Bq                  0.76589  -0.63412   3.22943 
 
                    Distance matrix (angstroms):
                    1          2          3          4          5
     1  C    0.000000
     2  H    1.107243   0.000000
     3  H    1.107243   1.808119   0.000000
     4  H    1.107242   1.808119   1.808119   0.000000
     5  H    1.107242   1.808119   1.808119   1.808119   0.000000
     6  C    3.716564   4.466406   3.552675   4.375292   2.905491
     7  H    3.304834   4.245425   3.138054   3.729669   2.609639
     8  H    3.874815   4.532773   3.433340   4.667053   3.293247
     9  H    4.775071   5.529946   4.643673   5.362315   3.900096
    10  H    3.379040   3.943237   3.491565   4.126792   2.409362
                    6          7          8          9         10
     6  C    0.000000
     7  H    1.107243   0.000000
     8  H    1.107243   1.808119   0.000000
     9  H    1.107242   1.808119   1.808119   0.000000
    10  H    1.107243   1.808119   1.808119   1.808119   0.000000
 Symmetry turned off by external request.
 This structure is nearly, but not quite of a higher symmetry.
 Consider Symm=Loose if the higher symmetry is desired.
 Framework group  C1[X(C2H8)]
 Deg. of freedom    24
 Rotational constants (GHZ):     76.6916054      4.3081112      4.3081112
   276 basis functions,   360 primitive gaussians,   310 cartesian basis functions
     5 alpha electrons        5 beta electrons
       nuclear repulsion energy        13.2261669904 Hartrees.
 IMHF & INEx in M05                  614413                  385587
 NAtoms=   10 NActive=   10 NUniq=   10 SFac= 1.00D+00 NAtFMM=   60 NAOKFM=F Big=F
 ExpMin= 2.53D-02 ExpMax= 8.24D+03 ExpMxC= 2.81D+02 IAcc=3 IRadAn=         5 AccDes= 0.00D+00
 Harris functional with IExCor= 1009 and IRadAn=       5 diagonalized for initial guess.
 HarFok:  IExCor= 1009 AccDes= 0.00D+00 IRadAn=         5 IDoV= 1 UseB2=F ITyADJ=14
 ICtDFT=  3500011 ScaDFX=  1.000000  1.000000  1.000000  1.000000
 FoFCou: FMM=F IPFlag=           0 FMFlag=      100000 FMFlg1=           0
         NFxFlg=           0 DoJE=T BraDBF=F KetDBF=T FulRan=T
         wScrn=  0.000000 ICntrl=     500 IOpCl=  0 I1Cent=   200000004 NGrid=           0
         NMat0=    1 NMatS0=      1 NMatT0=    0 NMatD0=    1 NMtDS0=    0 NMtDT0=    0
 Symmetry not used in FoFCou.
 SCF Done:  E(RM05) =  -45.8798672652     A.U. after   11 cycles
            NFock= 11  Conv=0.13D-08     -V/T= 2.0334

 **********************************************************************

            Population analysis using the SCF density.

 **********************************************************************

 Alpha  occ. eigenvalues --  -12.05207  -0.99434  -0.71146  -0.71142  -0.71141
 Alpha virt. eigenvalues --   -0.08960  -0.01749  -0.01732  -0.01724  -0.00481
 Alpha virt. eigenvalues --   -0.00390  -0.00316   0.02970   0.04096   0.04794
 Alpha virt. eigenvalues --    0.05155   0.05943   0.06442   0.07235   0.07696
 Alpha virt. eigenvalues --    0.07866   0.09489   0.11050   0.11779   0.11977
 Alpha virt. eigenvalues --    0.15699   0.17321   0.19018   0.19859   0.20439
 Alpha virt. eigenvalues --    0.20935   0.20959   0.21724   0.22422   0.22653
 Alpha virt. eigenvalues --    0.23864   0.24467   0.25120   0.25479   0.26148
 Alpha virt. eigenvalues --    0.26841   0.28167   0.28456   0.30017   0.30982
 Alpha virt. eigenvalues --    0.32099   0.33261   0.34012   0.34463   0.35582
 Alpha virt. eigenvalues --    0.37235   0.37916   0.39854   0.40673   0.41594
 Alpha virt. eigenvalues --    0.42307   0.42530   0.44149   0.45328   0.46723
 Alpha virt. eigenvalues --    0.49387   0.49651   0.51779   0.53612   0.53995
 Alpha virt. eigenvalues --    0.54854   0.57085   0.57867   0.58622   0.59686
 Alpha virt. eigenvalues --    0.60531   0.63338   0.63962   0.64470   0.65814
 Alpha virt. eigenvalues --    0.67156   0.68200   0.70373   0.72576   0.73487
 Alpha virt. eigenvalues --    0.74455   0.75705   0.77118   0.77210   0.79264
 Alpha virt. eigenvalues --    0.81460   0.83056   0.84025   0.85447   0.85784
 Alpha virt. eigenvalues --    0.88240   0.90422   0.91492   0.92605   0.93342
 Alpha virt. eigenvalues --    0.95154   0.96155   0.96927   0.97986   0.99683
 Alpha virt. eigenvalues --    1.00594   1.01453   1.03130   1.04873   1.05451
 Alpha virt. eigenvalues --    1.06005   1.06759   1.09003   1.09561   1.11718
 Alpha virt. eigenvalues --    1.13760   1.14976   1.16591   1.18699   1.20229
 Alpha virt. eigenvalues --    1.20905   1.22329   1.23285   1.25450   1.26073
 Alpha virt. eigenvalues --    1.27225   1.27761   1.28353   1.30655   1.31804
 Alpha virt. eigenvalues --    1.32620   1.33694   1.36067   1.36517   1.38864
 Alpha virt. eigenvalues --    1.39978   1.41545   1.42689   1.45800   1.48617
 Alpha virt. eigenvalues --    1.49143   1.49609   1.52576   1.56124   1.57411
 Alpha virt. eigenvalues --    1.60581   1.63969   1.64951   1.70624   1.73693
 Alpha virt. eigenvalues --    1.75145   1.77443   1.79230   1.82127   1.84716
 Alpha virt. eigenvalues --    1.85517   1.86384   1.91785   1.95272   1.96092
 Alpha virt. eigenvalues --    1.99783   2.00491   2.04726   2.05400   2.08010
 Alpha virt. eigenvalues --    2.14748   2.21038   2.27610   2.28256   2.32187
 Alpha virt. eigenvalues --    2.33115   2.44565   2.45063   2.51112   2.51295
 Alpha virt. eigenvalues --    2.53068   2.67105   2.67589   2.70299   2.82331
 Alpha virt. eigenvalues --    2.99475   2.99840   3.01096   3.01486   3.05297
 Alpha virt. eigenvalues --    3.06400   3.09484   3.20250   3.22526   3.23547
 Alpha virt. eigenvalues --    3.27869   3.44516   3.46591   3.47347   3.47846
 Alpha virt. eigenvalues --    3.50346   3.51769   3.52248   3.56801   3.59072
 Alpha virt. eigenvalues --    3.72260   3.91139   3.91609   3.93827   3.97886
 Alpha virt. eigenvalues --    4.00005   4.01272   4.01550   4.03519   4.04022
 Alpha virt. eigenvalues --    4.04956   4.06913   4.07764   4.09542   4.14759
 Alpha virt. eigenvalues --    4.17212   4.18287   4.19618   4.21347   4.24135
 Alpha virt. eigenvalues --    4.31643   4.35361   4.37611   4.38123   4.45023
 Alpha virt. eigenvalues --    4.46631   4.47201   4.48296   4.49883   4.51931
 Alpha virt. eigenvalues --    4.54343   4.58475   4.59972   4.62398   4.64420
 Alpha virt. eigenvalues --    4.76461   4.83200   4.89023   4.89786   4.91030
 Alpha virt. eigenvalues --    4.91814   4.92329   4.97469   5.02687   5.03253
 Alpha virt. eigenvalues --    5.11686   5.14550   5.15502   5.16559   5.19557
 Alpha virt. eigenvalues --    5.23846   5.28316   5.28709   5.31207   5.39777
 Alpha virt. eigenvalues --    5.41364   5.46758   5.47528   5.49485   5.53189
 Alpha virt. eigenvalues --    5.63090   5.65194   5.66770   6.12711   6.14176
 Alpha virt. eigenvalues --    6.14890   6.22681   6.22817   6.79999   6.81719
 Alpha virt. eigenvalues --    6.81947   6.96672   7.63691   7.65200   7.68021
 Alpha virt. eigenvalues --    8.05165   8.05998   8.10005  10.30596  15.03608
 Alpha virt. eigenvalues --   52.45655
          Condensed to atoms (all electrons):
 Mulliken charges:
               1
     1  C    0.272119
     2  H   -0.291013
     3  H   -0.128801
     4  H   -0.244625
     5  H    0.356821
     6  C    0.031880
     7  H    0.007374
     8  H    0.002170
     9  H    0.002704
    10  H   -0.008627
 Sum of Mulliken charges =  -0.00000
 Mulliken charges with hydrogens summed into heavy atoms:
               1
     1  C   -0.035500
     6  C    0.035500
 Electronic spatial extent (au):  <R**2>=             35.5902
 Charge=             -0.0000 electrons
 Dipole moment (field-independent basis, Debye):
    X=              0.0001    Y=             -0.0002    Z=             -0.0008  Tot=              0.0008

 Test job not archived.
 1\1\GINC-CHIMERA-NODE56\SP\RM05\Gen\C2H8\CONNORNM\08-Dec-2018\0\\#T M0
 5/Gen test Massage SCF=(tight,maxcyc=40)\\M05 opt\\0,1\C,0,0.,0.,0.\H,
 0,0.88862828,0.,-0.66054958\H,0,-0.21813829,1.03568302,0.32521121\H,0,
 -0.87032676,-0.40450797,-0.55216898\H,0,0.19983678,-0.63117504,0.88750
 734\C,0,0.,0.,3.71656409\H,0,-0.95510745,-0.08364268,3.16270524\H,0,0.
 3374399,1.05456592,3.71324899\H,0,-0.14821951,-0.33680667,4.76087161\H
 ,0,0.76588706,-0.63411658,3.2294305\\Version=AS64L-G09RevD.01\HF=-45.8
 798673\RMSD=1.290e-09\Dipole=0.0000363,-0.000093,-0.0003052\Quadrupole
 =0.000087,-0.0003376,0.0002506,-0.0000388,-0.0006562,0.0000874\PG=C01 
 [X(C2H8)]\\@


 WHERE THERE IS MUCH DESIRE TO LEARN, THERE OF NECESSITY WILL BE
 MUCH ARGUING, MUCH WRITING, MANY OPINIONS; FOR OPINION IN GOOD MEN
 IS BUT KNOWLEDGE IN THE MAKING. -- JOHN MILTON.
 Job cpu time:       0 days  0 hours 17 minutes 55.5 seconds.
 File lengths (MBytes):  RWF=     41 Int=      0 D2E=      0 Chk=      4 Scr=      1
 Normal termination of Gaussian 09 at Sat Dec  8 13:23:15 2018.
