 Entering Gaussian System, Link 0=/data/szalewicgrp/connornm/opt/Gaussian/g09-M05-par/g09/g09
 AtFile(1): aug-cc-pVTZ.gbs
 Initial command:
 /data/szalewicgrp/connornm/opt/Gaussian/g09-M05-par/g09/l1.exe "/scratch/local/Gau-13417.inp" -scrdir="/scratch/local/"
 Entering Link 1 = /data/szalewicgrp/connornm/opt/Gaussian/g09-M05-par/g09/l1.exe PID=     13418.
  
 Copyright (c) 1988,1990,1992,1993,1995,1998,2003,2009,2013,
            Gaussian, Inc.  All Rights Reserved.
  
 This is part of the Gaussian(R) 09 program.  It is based on
 the Gaussian(R) 03 system (copyright 2003, Gaussian, Inc.),
 the Gaussian(R) 98 system (copyright 1998, Gaussian, Inc.),
 the Gaussian(R) 94 system (copyright 1995, Gaussian, Inc.),
 the Gaussian 92(TM) system (copyright 1992, Gaussian, Inc.),
 the Gaussian 90(TM) system (copyright 1990, Gaussian, Inc.),
 the Gaussian 88(TM) system (copyright 1988, Gaussian, Inc.),
 the Gaussian 86(TM) system (copyright 1986, Carnegie Mellon
 University), and the Gaussian 82(TM) system (copyright 1983,
 Carnegie Mellon University). Gaussian is a federally registered
 trademark of Gaussian, Inc.
  
 This software contains proprietary and confidential information,
 including trade secrets, belonging to Gaussian, Inc.
  
 This software is provided under written license and may be
 used, copied, transmitted, or stored only in accord with that
 written license.
  
 The following legend is applicable only to US Government
 contracts under FAR:
  
                    RESTRICTED RIGHTS LEGEND
  
 Use, reproduction and disclosure by the US Government is
 subject to restrictions as set forth in subparagraphs (a)
 and (c) of the Commercial Computer Software - Restricted
 Rights clause in FAR 52.227-19.
  
 Gaussian, Inc.
 340 Quinnipiac St., Bldg. 40, Wallingford CT 06492
  
  
 ---------------------------------------------------------------
 Warning -- This program may not be used in any manner that
 competes with the business of Gaussian, Inc. or will provide
 assistance to any competitor of Gaussian, Inc.  The licensee
 of this program is prohibited from giving any competitor of
 Gaussian, Inc. access to this program.  By using this program,
 the user acknowledges that Gaussian, Inc. is engaged in the
 business of creating and licensing software in the field of
 computational chemistry and represents and warrants to the
 licensee that it is not a competitor of Gaussian, Inc. and that
 it will not use this program in any manner prohibited above.
 ---------------------------------------------------------------
  

 Cite this work as:
 Gaussian 09, Revision D.01,
 M. J. Frisch, G. W. Trucks, H. B. Schlegel, G. E. Scuseria, 
 M. A. Robb, J. R. Cheeseman, G. Scalmani, V. Barone, B. Mennucci, 
 G. A. Petersson, H. Nakatsuji, M. Caricato, X. Li, H. P. Hratchian, 
 A. F. Izmaylov, J. Bloino, G. Zheng, J. L. Sonnenberg, M. Hada, 
 M. Ehara, K. Toyota, R. Fukuda, J. Hasegawa, M. Ishida, T. Nakajima, 
 Y. Honda, O. Kitao, H. Nakai, T. Vreven, J. A. Montgomery, Jr., 
 J. E. Peralta, F. Ogliaro, M. Bearpark, J. J. Heyd, E. Brothers, 
 K. N. Kudin, V. N. Staroverov, T. Keith, R. Kobayashi, J. Normand, 
 K. Raghavachari, A. Rendell, J. C. Burant, S. S. Iyengar, J. Tomasi, 
 M. Cossi, N. Rega, J. M. Millam, M. Klene, J. E. Knox, J. B. Cross, 
 V. Bakken, C. Adamo, J. Jaramillo, R. Gomperts, R. E. Stratmann, 
 O. Yazyev, A. J. Austin, R. Cammi, C. Pomelli, J. W. Ochterski, 
 R. L. Martin, K. Morokuma, V. G. Zakrzewski, G. A. Voth, 
 P. Salvador, J. J. Dannenberg, S. Dapprich, A. D. Daniels, 
 O. Farkas, J. B. Foresman, J. V. Ortiz, J. Cioslowski, 
 and D. J. Fox, Gaussian, Inc., Wallingford CT, 2013.
 
 ******************************************
 Gaussian 09:  AS64L-G09RevD.01 24-Apr-2013
                 7-Dec-2018 
 ******************************************
 %Chk=CH400307
 %Mem=2GB
 %NProcShared=16
 Will use up to   16 processors via shared memory.
 ---------------------------------------------
 #T M05/Gen test Massage SCF=(tight,maxcyc=40)
 ---------------------------------------------
 -------
 M05 opt
 -------
 Symbolic Z-matrix:
 Charge =  0 Multiplicity = 1
 6                     0.        0.        0. 
 1                     0.61057   0.       -0.92369 
 1                     0.63869  -0.26557   0.8646 
 1                    -0.43277   1.0071    0.15636 
 1                    -0.81649  -0.74153  -0.09728 
 6-Bq                  0.        0.        3.84052 
 1-Bq                  1.10108  -0.11433   3.81738 
 1-Bq                 -0.36355  -0.1368    4.8774 
 1-Bq                 -0.27357   1.01194   3.48399 
 1-Bq                 -0.46396  -0.76081   3.18334 
 
                    Distance matrix (angstroms):
                    1          2          3          4          5
     1  C    0.000000
     2  H    1.107243   0.000000
     3  H    1.107242   1.808119   0.000000
     4  H    1.107243   1.808119   1.808119   0.000000
     5  H    1.107242   1.808119   1.808119   1.808119   0.000000
     6  C    3.840524   4.803174   3.055249   3.843773   4.089356
     7  H    3.974646   4.767739   2.992581   4.124720   4.403974
     8  H    4.892838   5.883890   4.138061   4.858133   5.031725
     9  H    3.638273   4.607959   3.053751   3.331434   4.024291
    10  H    3.305714   4.312899   2.614887   3.505578   3.299563
                    6          7          8          9         10
     6  C    0.000000
     7  H    1.107243   0.000000
     8  H    1.107243   1.808119   0.000000
     9  H    1.107243   1.808119   1.808119   0.000000
    10  H    1.107242   1.808119   1.808119   1.808119   0.000000
 Symmetry turned off by external request.
 This structure is nearly, but not quite of a higher symmetry.
 Consider Symm=Loose if the higher symmetry is desired.
 Framework group  C1[X(C2H8)]
 Deg. of freedom    24
 Rotational constants (GHZ):     76.6916054      4.0489402      4.0489402
   276 basis functions,   360 primitive gaussians,   310 cartesian basis functions
     5 alpha electrons        5 beta electrons
       nuclear repulsion energy        13.2261669905 Hartrees.
 IMHF & INEx in M05                  614413                  385587
 NAtoms=   10 NActive=   10 NUniq=   10 SFac= 1.00D+00 NAtFMM=   60 NAOKFM=F Big=F
 ExpMin= 2.53D-02 ExpMax= 8.24D+03 ExpMxC= 2.81D+02 IAcc=3 IRadAn=         5 AccDes= 0.00D+00
 Harris functional with IExCor= 1009 and IRadAn=       5 diagonalized for initial guess.
 HarFok:  IExCor= 1009 AccDes= 0.00D+00 IRadAn=         5 IDoV= 1 UseB2=F ITyADJ=14
 ICtDFT=  3500011 ScaDFX=  1.000000  1.000000  1.000000  1.000000
 FoFCou: FMM=F IPFlag=           0 FMFlag=      100000 FMFlg1=           0
         NFxFlg=           0 DoJE=T BraDBF=F KetDBF=T FulRan=T
         wScrn=  0.000000 ICntrl=     500 IOpCl=  0 I1Cent=   200000004 NGrid=           0
         NMat0=    1 NMatS0=      1 NMatT0=    0 NMatD0=    1 NMtDS0=    0 NMtDT0=    0
 Symmetry not used in FoFCou.
 SCF Done:  E(RM05) =  -45.8797336684     A.U. after   11 cycles
            NFock= 11  Conv=0.66D-09     -V/T= 2.0335

 **********************************************************************

            Population analysis using the SCF density.

 **********************************************************************

 Alpha  occ. eigenvalues --  -12.05206  -0.99433  -0.71144  -0.71142  -0.71141
 Alpha virt. eigenvalues --   -0.08963  -0.01744  -0.01736  -0.01727  -0.00489
 Alpha virt. eigenvalues --   -0.00344  -0.00269   0.03094   0.03636   0.04671
 Alpha virt. eigenvalues --    0.05448   0.05640   0.06715   0.07047   0.07853
 Alpha virt. eigenvalues --    0.08713   0.09863   0.10884   0.11610   0.12177
 Alpha virt. eigenvalues --    0.15414   0.16966   0.18242   0.19539   0.19704
 Alpha virt. eigenvalues --    0.20461   0.21283   0.21834   0.21946   0.22945
 Alpha virt. eigenvalues --    0.24157   0.24763   0.25245   0.25838   0.26231
 Alpha virt. eigenvalues --    0.26446   0.27987   0.28478   0.29999   0.30757
 Alpha virt. eigenvalues --    0.31450   0.32852   0.34511   0.34552   0.35252
 Alpha virt. eigenvalues --    0.36082   0.38055   0.38365   0.38898   0.40558
 Alpha virt. eigenvalues --    0.42886   0.43753   0.44566   0.46421   0.46469
 Alpha virt. eigenvalues --    0.47855   0.48775   0.50216   0.51972   0.53975
 Alpha virt. eigenvalues --    0.55425   0.56524   0.56823   0.58580   0.59433
 Alpha virt. eigenvalues --    0.62483   0.63284   0.63835   0.65215   0.65734
 Alpha virt. eigenvalues --    0.66954   0.68976   0.70718   0.71907   0.72197
 Alpha virt. eigenvalues --    0.73731   0.75274   0.76863   0.78099   0.78927
 Alpha virt. eigenvalues --    0.80211   0.82864   0.83859   0.86804   0.87518
 Alpha virt. eigenvalues --    0.88242   0.90493   0.90957   0.91624   0.92424
 Alpha virt. eigenvalues --    0.94021   0.94522   0.96008   0.98117   0.99702
 Alpha virt. eigenvalues --    1.00999   1.01671   1.02137   1.03976   1.04302
 Alpha virt. eigenvalues --    1.06336   1.06887   1.08685   1.09107   1.09666
 Alpha virt. eigenvalues --    1.12352   1.14622   1.14720   1.16534   1.19203
 Alpha virt. eigenvalues --    1.20287   1.22387   1.23731   1.25345   1.25562
 Alpha virt. eigenvalues --    1.25846   1.27137   1.28246   1.28543   1.29774
 Alpha virt. eigenvalues --    1.31450   1.33201   1.34667   1.35532   1.37850
 Alpha virt. eigenvalues --    1.38680   1.39194   1.41855   1.44294   1.46714
 Alpha virt. eigenvalues --    1.48039   1.49012   1.51067   1.54891   1.56101
 Alpha virt. eigenvalues --    1.60074   1.61810   1.68160   1.69558   1.70740
 Alpha virt. eigenvalues --    1.75077   1.76431   1.78035   1.81060   1.83087
 Alpha virt. eigenvalues --    1.85081   1.85949   1.89961   1.95507   1.98731
 Alpha virt. eigenvalues --    2.00415   2.00686   2.03694   2.06433   2.07737
 Alpha virt. eigenvalues --    2.09882   2.14331   2.26639   2.27916   2.32532
 Alpha virt. eigenvalues --    2.35988   2.43842   2.45713   2.49907   2.50477
 Alpha virt. eigenvalues --    2.52321   2.67809   2.68786   2.71299   2.83748
 Alpha virt. eigenvalues --    2.98017   2.99405   3.01099   3.01511   3.04555
 Alpha virt. eigenvalues --    3.06127   3.08834   3.11493   3.22193   3.23588
 Alpha virt. eigenvalues --    3.25180   3.44402   3.45528   3.47424   3.47654
 Alpha virt. eigenvalues --    3.49384   3.50104   3.52334   3.55953   3.60162
 Alpha virt. eigenvalues --    3.78774   3.90588   3.91543   3.92512   3.98246
 Alpha virt. eigenvalues --    4.01027   4.01576   4.02309   4.02731   4.03336
 Alpha virt. eigenvalues --    4.04273   4.05406   4.07777   4.09799   4.13018
 Alpha virt. eigenvalues --    4.16490   4.16950   4.18596   4.21110   4.22441
 Alpha virt. eigenvalues --    4.29768   4.35564   4.37510   4.39128   4.45383
 Alpha virt. eigenvalues --    4.46432   4.47036   4.47520   4.49010   4.49602
 Alpha virt. eigenvalues --    4.54386   4.58970   4.59441   4.62634   4.65346
 Alpha virt. eigenvalues --    4.75977   4.82648   4.89077   4.90151   4.90393
 Alpha virt. eigenvalues --    4.91417   4.92240   4.96038   5.02447   5.02670
 Alpha virt. eigenvalues --    5.13820   5.14008   5.15727   5.16123   5.18045
 Alpha virt. eigenvalues --    5.20632   5.29079   5.29237   5.30222   5.40643
 Alpha virt. eigenvalues --    5.41598   5.47574   5.48393   5.48922   5.54058
 Alpha virt. eigenvalues --    5.62301   5.64497   5.65344   6.13291   6.14053
 Alpha virt. eigenvalues --    6.14250   6.23344   6.23429   6.80776   6.81377
 Alpha virt. eigenvalues --    6.81969   6.96343   7.64925   7.65412   7.68098
 Alpha virt. eigenvalues --    8.05432   8.07326   8.10073  10.36408  14.97625
 Alpha virt. eigenvalues --   52.53674
          Condensed to atoms (all electrons):
 Mulliken charges:
               1
     1  C    0.313989
     2  H   -0.313240
     3  H    0.217841
     4  H   -0.104824
     5  H   -0.123827
     6  C    0.006912
     7  H   -0.001298
     8  H   -0.000175
     9  H    0.001239
    10  H    0.003383
 Sum of Mulliken charges =  -0.00000
 Mulliken charges with hydrogens summed into heavy atoms:
               1
     1  C   -0.010061
     6  C    0.010061
 Electronic spatial extent (au):  <R**2>=             35.5901
 Charge=             -0.0000 electrons
 Dipole moment (field-independent basis, Debye):
    X=             -0.0003    Y=              0.0000    Z=             -0.0002  Tot=              0.0004

 Test job not archived.
 1\1\GINC-CHIMERA-NODE40\SP\RM05\Gen\C2H8\CONNORNM\07-Dec-2018\0\\#T M0
 5/Gen test Massage SCF=(tight,maxcyc=40)\\M05 opt\\0,1\C,0,0.,0.,0.\H,
 0,0.61056656,0.,-0.92368525\H,0,0.63868607,-0.26556594,0.86460441\H,0,
 -0.43276639,1.00709986,0.15636203\H,0,-0.81648624,-0.74153391,-0.09728
 12\C,0,0.,0.,3.84052424\H,0,1.10108063,-0.1143309,3.81737589\H,0,-0.36
 355252,-0.13680032,4.87739511\H,0,-0.27356665,1.01194268,3.48398635\H,
 0,-0.46396147,-0.76081146,3.18333962\\Version=AS64L-G09RevD.01\HF=-45.
 8797337\RMSD=6.605e-10\Dipole=-0.0001002,0.0000005,-0.000097\Quadrupol
 e=0.0003314,-0.0007429,0.0004116,-0.0001671,-0.0011797,0.0001697\PG=C0
 1 [X(C2H8)]\\@


 THE MORE POWERFUL THE METHOD, THE MORE CATASTROPHIC THE ERRORS.
     -- M.D. KAMEN
 Job cpu time:       0 days  0 hours 17 minutes 46.3 seconds.
 File lengths (MBytes):  RWF=     41 Int=      0 D2E=      0 Chk=      4 Scr=      1
 Normal termination of Gaussian 09 at Fri Dec  7 11:59:52 2018.
