 Entering Gaussian System, Link 0=/data/szalewicgrp/connornm/opt/Gaussian/g09-M05-par/g09/g09
 AtFile(1): aug-cc-pVTZ.gbs
 Initial command:
 /data/szalewicgrp/connornm/opt/Gaussian/g09-M05-par/g09/l1.exe "/scratch/local/Gau-15135.inp" -scrdir="/scratch/local/"
 Entering Link 1 = /data/szalewicgrp/connornm/opt/Gaussian/g09-M05-par/g09/l1.exe PID=     15136.
  
 Copyright (c) 1988,1990,1992,1993,1995,1998,2003,2009,2013,
            Gaussian, Inc.  All Rights Reserved.
  
 This is part of the Gaussian(R) 09 program.  It is based on
 the Gaussian(R) 03 system (copyright 2003, Gaussian, Inc.),
 the Gaussian(R) 98 system (copyright 1998, Gaussian, Inc.),
 the Gaussian(R) 94 system (copyright 1995, Gaussian, Inc.),
 the Gaussian 92(TM) system (copyright 1992, Gaussian, Inc.),
 the Gaussian 90(TM) system (copyright 1990, Gaussian, Inc.),
 the Gaussian 88(TM) system (copyright 1988, Gaussian, Inc.),
 the Gaussian 86(TM) system (copyright 1986, Carnegie Mellon
 University), and the Gaussian 82(TM) system (copyright 1983,
 Carnegie Mellon University). Gaussian is a federally registered
 trademark of Gaussian, Inc.
  
 This software contains proprietary and confidential information,
 including trade secrets, belonging to Gaussian, Inc.
  
 This software is provided under written license and may be
 used, copied, transmitted, or stored only in accord with that
 written license.
  
 The following legend is applicable only to US Government
 contracts under FAR:
  
                    RESTRICTED RIGHTS LEGEND
  
 Use, reproduction and disclosure by the US Government is
 subject to restrictions as set forth in subparagraphs (a)
 and (c) of the Commercial Computer Software - Restricted
 Rights clause in FAR 52.227-19.
  
 Gaussian, Inc.
 340 Quinnipiac St., Bldg. 40, Wallingford CT 06492
  
  
 ---------------------------------------------------------------
 Warning -- This program may not be used in any manner that
 competes with the business of Gaussian, Inc. or will provide
 assistance to any competitor of Gaussian, Inc.  The licensee
 of this program is prohibited from giving any competitor of
 Gaussian, Inc. access to this program.  By using this program,
 the user acknowledges that Gaussian, Inc. is engaged in the
 business of creating and licensing software in the field of
 computational chemistry and represents and warrants to the
 licensee that it is not a competitor of Gaussian, Inc. and that
 it will not use this program in any manner prohibited above.
 ---------------------------------------------------------------
  

 Cite this work as:
 Gaussian 09, Revision D.01,
 M. J. Frisch, G. W. Trucks, H. B. Schlegel, G. E. Scuseria, 
 M. A. Robb, J. R. Cheeseman, G. Scalmani, V. Barone, B. Mennucci, 
 G. A. Petersson, H. Nakatsuji, M. Caricato, X. Li, H. P. Hratchian, 
 A. F. Izmaylov, J. Bloino, G. Zheng, J. L. Sonnenberg, M. Hada, 
 M. Ehara, K. Toyota, R. Fukuda, J. Hasegawa, M. Ishida, T. Nakajima, 
 Y. Honda, O. Kitao, H. Nakai, T. Vreven, J. A. Montgomery, Jr., 
 J. E. Peralta, F. Ogliaro, M. Bearpark, J. J. Heyd, E. Brothers, 
 K. N. Kudin, V. N. Staroverov, T. Keith, R. Kobayashi, J. Normand, 
 K. Raghavachari, A. Rendell, J. C. Burant, S. S. Iyengar, J. Tomasi, 
 M. Cossi, N. Rega, J. M. Millam, M. Klene, J. E. Knox, J. B. Cross, 
 V. Bakken, C. Adamo, J. Jaramillo, R. Gomperts, R. E. Stratmann, 
 O. Yazyev, A. J. Austin, R. Cammi, C. Pomelli, J. W. Ochterski, 
 R. L. Martin, K. Morokuma, V. G. Zakrzewski, G. A. Voth, 
 P. Salvador, J. J. Dannenberg, S. Dapprich, A. D. Daniels, 
 O. Farkas, J. B. Foresman, J. V. Ortiz, J. Cioslowski, 
 and D. J. Fox, Gaussian, Inc., Wallingford CT, 2013.
 
 ******************************************
 Gaussian 09:  AS64L-G09RevD.01 24-Apr-2013
                 8-Dec-2018 
 ******************************************
 %Chk=CH400072
 %Mem=2GB
 %NProcShared=16
 Will use up to   16 processors via shared memory.
 ---------------------------------------------
 #T M05/Gen test Massage SCF=(tight,maxcyc=40)
 ---------------------------------------------
 -------
 M05 opt
 -------
 Symbolic Z-matrix:
 Charge =  0 Multiplicity = 1
 6                     0.        0.        0. 
 1                     1.09502   0.        0.16405 
 1                    -0.34435  -1.03456  -0.1926 
 1                    -0.50808   0.39651   0.90035 
 1                    -0.2426    0.63805  -0.87179 
 6-Bq                  0.        0.        2.94308 
 1-Bq                  0.63248   0.07891   2.03769 
 1-Bq                  0.46208   0.57686   3.76752 
 1-Bq                 -1.00666   0.40718   2.7267 
 1-Bq                 -0.0879   -1.06295   3.2404 
 
                    Distance matrix (angstroms):
                    1          2          3          4          5
     1  C    0.000000
     2  H    1.107242   0.000000
     3  H    1.107243   1.808119   0.000000
     4  H    1.107243   1.808119   1.808119   0.000000
     5  H    1.107243   1.808119   1.808119   1.808119   0.000000
     6  C    2.943078   2.986988   3.319844   2.141990   3.875461
     7  H    2.135050   1.931506   2.677349   1.641737   3.089253
     8  H    3.839334   3.703836   4.350808   3.032231   4.692922
     9  H    2.934976   3.339177   3.322593   1.893221   3.685956
    10  H    3.411417   3.463107   3.442680   2.789698   4.452802
                    6          7          8          9         10
     6  C    0.000000
     7  H    1.107243   0.000000
     8  H    1.107242   1.808119   0.000000
     9  H    1.107243   1.808119   1.808119   0.000000
    10  H    1.107242   1.808119   1.808119   1.808119   0.000000
 Symmetry turned off by external request.
 This structure is nearly, but not quite of a higher symmetry.
 Consider Symm=Loose if the higher symmetry is desired.
 Framework group  C1[X(C2H8)]
 Deg. of freedom    24
 Rotational constants (GHZ):     76.6916056      6.6480639      6.6480639
   276 basis functions,   360 primitive gaussians,   310 cartesian basis functions
     5 alpha electrons        5 beta electrons
       nuclear repulsion energy        13.2261669925 Hartrees.
 IMHF & INEx in M05                  614413                  385587
 NAtoms=   10 NActive=   10 NUniq=   10 SFac= 1.00D+00 NAtFMM=   60 NAOKFM=F Big=F
 ExpMin= 2.53D-02 ExpMax= 8.24D+03 ExpMxC= 2.81D+02 IAcc=3 IRadAn=         5 AccDes= 0.00D+00
 Harris functional with IExCor= 1009 and IRadAn=       5 diagonalized for initial guess.
 HarFok:  IExCor= 1009 AccDes= 0.00D+00 IRadAn=         5 IDoV= 1 UseB2=F ITyADJ=14
 ICtDFT=  3500011 ScaDFX=  1.000000  1.000000  1.000000  1.000000
 FoFCou: FMM=F IPFlag=           0 FMFlag=      100000 FMFlg1=           0
         NFxFlg=           0 DoJE=T BraDBF=F KetDBF=T FulRan=T
         wScrn=  0.000000 ICntrl=     500 IOpCl=  0 I1Cent=   200000004 NGrid=           0
         NMat0=    1 NMatS0=      1 NMatT0=    0 NMatD0=    1 NMtDS0=    0 NMtDT0=    0
 Symmetry not used in FoFCou.
 SCF Done:  E(RM05) =  -45.8809240224     A.U. after   11 cycles
            NFock= 11  Conv=0.25D-08     -V/T= 2.0329

 **********************************************************************

            Population analysis using the SCF density.

 **********************************************************************

 Alpha  occ. eigenvalues --  -12.05225  -0.99442  -0.71162  -0.71155  -0.71145
 Alpha virt. eigenvalues --   -0.08948  -0.01753  -0.01721  -0.01715  -0.00485
 Alpha virt. eigenvalues --   -0.00387  -0.00304   0.03388   0.03654   0.04877
 Alpha virt. eigenvalues --    0.05599   0.05875   0.06312   0.07130   0.07734
 Alpha virt. eigenvalues --    0.08511   0.10391   0.11257   0.11966   0.14500
 Alpha virt. eigenvalues --    0.14654   0.17805   0.19179   0.19951   0.20213
 Alpha virt. eigenvalues --    0.20314   0.21069   0.21955   0.22255   0.23909
 Alpha virt. eigenvalues --    0.24142   0.24428   0.25486   0.26078   0.26538
 Alpha virt. eigenvalues --    0.27000   0.28936   0.30345   0.31126   0.31394
 Alpha virt. eigenvalues --    0.33860   0.34994   0.36237   0.36955   0.37764
 Alpha virt. eigenvalues --    0.38398   0.39277   0.39955   0.40188   0.42092
 Alpha virt. eigenvalues --    0.44688   0.44952   0.45085   0.46349   0.48255
 Alpha virt. eigenvalues --    0.50494   0.52579   0.53498   0.54273   0.54753
 Alpha virt. eigenvalues --    0.56662   0.56982   0.58407   0.59217   0.59945
 Alpha virt. eigenvalues --    0.61124   0.62606   0.63898   0.64942   0.65727
 Alpha virt. eigenvalues --    0.69362   0.69843   0.71484   0.71806   0.73160
 Alpha virt. eigenvalues --    0.74828   0.77086   0.78195   0.80845   0.81281
 Alpha virt. eigenvalues --    0.83170   0.84220   0.85836   0.87456   0.89395
 Alpha virt. eigenvalues --    0.90460   0.91751   0.92556   0.94599   0.95171
 Alpha virt. eigenvalues --    0.96295   0.98026   0.99116   0.99880   1.00359
 Alpha virt. eigenvalues --    1.01684   1.03087   1.05875   1.06910   1.09068
 Alpha virt. eigenvalues --    1.09487   1.10105   1.11892   1.14013   1.17095
 Alpha virt. eigenvalues --    1.17742   1.18559   1.19579   1.20665   1.22705
 Alpha virt. eigenvalues --    1.23765   1.25871   1.26457   1.27034   1.28237
 Alpha virt. eigenvalues --    1.29891   1.31085   1.31565   1.32336   1.33555
 Alpha virt. eigenvalues --    1.34767   1.37252   1.39116   1.41355   1.44017
 Alpha virt. eigenvalues --    1.45586   1.48505   1.50913   1.52359   1.52906
 Alpha virt. eigenvalues --    1.55111   1.56859   1.60050   1.64645   1.66186
 Alpha virt. eigenvalues --    1.69050   1.71229   1.73896   1.76842   1.77564
 Alpha virt. eigenvalues --    1.80460   1.80685   1.83339   1.84571   1.85783
 Alpha virt. eigenvalues --    1.87302   1.90584   1.93028   1.96544   1.98252
 Alpha virt. eigenvalues --    1.99910   2.01218   2.06634   2.07291   2.12733
 Alpha virt. eigenvalues --    2.16913   2.27269   2.29768   2.32393   2.36762
 Alpha virt. eigenvalues --    2.41214   2.44834   2.49207   2.55438   2.59393
 Alpha virt. eigenvalues --    2.60827   2.63825   2.66130   2.68743   2.96515
 Alpha virt. eigenvalues --    3.01130   3.02836   3.07877   3.09377   3.12856
 Alpha virt. eigenvalues --    3.14415   3.20305   3.22614   3.26836   3.30850
 Alpha virt. eigenvalues --    3.34832   3.48833   3.50307   3.50660   3.51626
 Alpha virt. eigenvalues --    3.54334   3.57621   3.58723   3.62227   3.65628
 Alpha virt. eigenvalues --    3.73471   3.86131   3.89922   3.93759   3.94974
 Alpha virt. eigenvalues --    3.97410   3.99462   4.02224   4.04255   4.06359
 Alpha virt. eigenvalues --    4.08299   4.09183   4.10567   4.11752   4.15054
 Alpha virt. eigenvalues --    4.19267   4.21067   4.25405   4.28060   4.31276
 Alpha virt. eigenvalues --    4.32442   4.35003   4.37206   4.41054   4.45062
 Alpha virt. eigenvalues --    4.46333   4.48498   4.50521   4.52224   4.54157
 Alpha virt. eigenvalues --    4.55226   4.60601   4.62281   4.73040   4.78351
 Alpha virt. eigenvalues --    4.81116   4.85786   4.86900   4.87860   4.88952
 Alpha virt. eigenvalues --    4.92212   4.95501   5.01591   5.03150   5.06856
 Alpha virt. eigenvalues --    5.11696   5.17060   5.19437   5.20967   5.23813
 Alpha virt. eigenvalues --    5.24006   5.27676   5.28859   5.31756   5.35809
 Alpha virt. eigenvalues --    5.44368   5.44410   5.51058   5.61341   5.66182
 Alpha virt. eigenvalues --    5.66889   5.70719   5.77989   6.05182   6.08221
 Alpha virt. eigenvalues --    6.12114   6.16229   6.17199   6.75630   6.77893
 Alpha virt. eigenvalues --    6.85884   6.95814   7.52762   7.61524   7.64262
 Alpha virt. eigenvalues --    8.00297   8.06898   8.16042  10.38988  15.65345
 Alpha virt. eigenvalues --   53.74188
          Condensed to atoms (all electrons):
 Mulliken charges:
               1
     1  C    0.027702
     2  H   -0.145690
     3  H   -0.114624
     4  H    0.942916
     5  H   -0.705132
     6  C   -0.034976
     7  H    0.039364
     8  H    0.008266
     9  H   -0.005251
    10  H   -0.012574
 Sum of Mulliken charges =  -0.00000
 Mulliken charges with hydrogens summed into heavy atoms:
               1
     1  C    0.005171
     6  C   -0.005171
 Electronic spatial extent (au):  <R**2>=             35.5902
 Charge=             -0.0000 electrons
 Dipole moment (field-independent basis, Debye):
    X=             -0.0005    Y=              0.0002    Z=             -0.0003  Tot=              0.0006

 Test job not archived.
 1\1\GINC-CHIMERA-NODE56\SP\RM05\Gen\C2H8\CONNORNM\08-Dec-2018\0\\#T M0
 5/Gen test Massage SCF=(tight,maxcyc=40)\\M05 opt\\0,1\C,0,0.,0.,0.\H,
 0,1.09502283,0.,0.16404558\H,0,-0.34434617,-1.03456135,-0.1925993\H,0,
 -0.50808042,0.39650781,0.90034538\H,0,-0.24259624,0.63805354,-0.871791
 66\C,0,0.,0.,2.94307794\H,0,0.63248062,0.07890956,2.0376899\H,0,0.4620
 8173,0.57685626,3.76751913\H,0,-1.00666299,0.40718297,2.72670417\H,0,-
 0.08789936,-1.06294878,3.24039855\\Version=AS64L-G09RevD.01\HF=-45.880
 924\RMSD=2.503e-09\Dipole=-0.0001947,0.0000957,-0.0001165\Quadrupole=-
 0.0015492,0.0004398,0.0011094,0.0004359,0.001631,-0.0005604\PG=C01 [X(
 C2H8)]\\@


 ART, GLORY, FREEDOM FAIL, BUT NATURE STILL IS FAIR.

                                           -- BYRON
 Job cpu time:       0 days  0 hours 19 minutes 45.7 seconds.
 File lengths (MBytes):  RWF=     41 Int=      0 D2E=      0 Chk=      4 Scr=      1
 Normal termination of Gaussian 09 at Sat Dec  8 13:53:37 2018.
