 Entering Gaussian System, Link 0=/data/szalewicgrp/connornm/opt/Gaussian/g09-M05-par/g09/g09
 AtFile(1): aug-cc-pVTZ.gbs
 Initial command:
 /data/szalewicgrp/connornm/opt/Gaussian/g09-M05-par/g09/l1.exe "/scratch/local/Gau-28805.inp" -scrdir="/scratch/local/"
 Entering Link 1 = /data/szalewicgrp/connornm/opt/Gaussian/g09-M05-par/g09/l1.exe PID=     28806.
  
 Copyright (c) 1988,1990,1992,1993,1995,1998,2003,2009,2013,
            Gaussian, Inc.  All Rights Reserved.
  
 This is part of the Gaussian(R) 09 program.  It is based on
 the Gaussian(R) 03 system (copyright 2003, Gaussian, Inc.),
 the Gaussian(R) 98 system (copyright 1998, Gaussian, Inc.),
 the Gaussian(R) 94 system (copyright 1995, Gaussian, Inc.),
 the Gaussian 92(TM) system (copyright 1992, Gaussian, Inc.),
 the Gaussian 90(TM) system (copyright 1990, Gaussian, Inc.),
 the Gaussian 88(TM) system (copyright 1988, Gaussian, Inc.),
 the Gaussian 86(TM) system (copyright 1986, Carnegie Mellon
 University), and the Gaussian 82(TM) system (copyright 1983,
 Carnegie Mellon University). Gaussian is a federally registered
 trademark of Gaussian, Inc.
  
 This software contains proprietary and confidential information,
 including trade secrets, belonging to Gaussian, Inc.
  
 This software is provided under written license and may be
 used, copied, transmitted, or stored only in accord with that
 written license.
  
 The following legend is applicable only to US Government
 contracts under FAR:
  
                    RESTRICTED RIGHTS LEGEND
  
 Use, reproduction and disclosure by the US Government is
 subject to restrictions as set forth in subparagraphs (a)
 and (c) of the Commercial Computer Software - Restricted
 Rights clause in FAR 52.227-19.
  
 Gaussian, Inc.
 340 Quinnipiac St., Bldg. 40, Wallingford CT 06492
  
  
 ---------------------------------------------------------------
 Warning -- This program may not be used in any manner that
 competes with the business of Gaussian, Inc. or will provide
 assistance to any competitor of Gaussian, Inc.  The licensee
 of this program is prohibited from giving any competitor of
 Gaussian, Inc. access to this program.  By using this program,
 the user acknowledges that Gaussian, Inc. is engaged in the
 business of creating and licensing software in the field of
 computational chemistry and represents and warrants to the
 licensee that it is not a competitor of Gaussian, Inc. and that
 it will not use this program in any manner prohibited above.
 ---------------------------------------------------------------
  

 Cite this work as:
 Gaussian 09, Revision D.01,
 M. J. Frisch, G. W. Trucks, H. B. Schlegel, G. E. Scuseria, 
 M. A. Robb, J. R. Cheeseman, G. Scalmani, V. Barone, B. Mennucci, 
 G. A. Petersson, H. Nakatsuji, M. Caricato, X. Li, H. P. Hratchian, 
 A. F. Izmaylov, J. Bloino, G. Zheng, J. L. Sonnenberg, M. Hada, 
 M. Ehara, K. Toyota, R. Fukuda, J. Hasegawa, M. Ishida, T. Nakajima, 
 Y. Honda, O. Kitao, H. Nakai, T. Vreven, J. A. Montgomery, Jr., 
 J. E. Peralta, F. Ogliaro, M. Bearpark, J. J. Heyd, E. Brothers, 
 K. N. Kudin, V. N. Staroverov, T. Keith, R. Kobayashi, J. Normand, 
 K. Raghavachari, A. Rendell, J. C. Burant, S. S. Iyengar, J. Tomasi, 
 M. Cossi, N. Rega, J. M. Millam, M. Klene, J. E. Knox, J. B. Cross, 
 V. Bakken, C. Adamo, J. Jaramillo, R. Gomperts, R. E. Stratmann, 
 O. Yazyev, A. J. Austin, R. Cammi, C. Pomelli, J. W. Ochterski, 
 R. L. Martin, K. Morokuma, V. G. Zakrzewski, G. A. Voth, 
 P. Salvador, J. J. Dannenberg, S. Dapprich, A. D. Daniels, 
 O. Farkas, J. B. Foresman, J. V. Ortiz, J. Cioslowski, 
 and D. J. Fox, Gaussian, Inc., Wallingford CT, 2013.
 
 ******************************************
 Gaussian 09:  AS64L-G09RevD.01 24-Apr-2013
                 8-Dec-2018 
 ******************************************
 %Chk=CH400272
 %Mem=2GB
 %NProcShared=16
 Will use up to   16 processors via shared memory.
 ---------------------------------------------
 #T M05/Gen test Massage SCF=(tight,maxcyc=40)
 ---------------------------------------------
 -------
 M05 opt
 -------
 Symbolic Z-matrix:
 Charge =  0 Multiplicity = 1
 6                     0.        0.        0. 
 1                     1.10462   0.        0.07623 
 1                    -0.36046  -1.03784  -0.13762 
 1                    -0.43396   0.42151   0.92736 
 1                    -0.3102    0.61633  -0.86597 
 6-Bq                  0.        0.        3.36928 
 1-Bq                 -0.336     1.05501   3.37535 
 1-Bq                 -0.67143  -0.60487   4.00905 
 1-Bq                 -0.02708  -0.39001   2.33336 
 1-Bq                  1.03451  -0.06013   3.75937 
 
                    Distance matrix (angstroms):
                    1          2          3          4          5
     1  C    0.000000
     2  H    1.107243   0.000000
     3  H    1.107243   1.808119   0.000000
     4  H    1.107243   1.808119   1.808119   0.000000
     5  H    1.107242   1.808119   1.808119   1.808119   0.000000
     6  C    3.369281   3.473379   3.674973   2.515744   4.291086
     7  H    3.552318   3.751352   4.089211   2.530532   4.264025
     8  H    4.109641   4.357437   4.180794   3.256785   5.038610
     9  H    2.365881   2.554888   2.576152   1.673602   3.365792
    10  H    3.899573   3.684296   4.253046   3.226240   4.864109
                    6          7          8          9         10
     6  C    0.000000
     7  H    1.107243   0.000000
     8  H    1.107243   1.808119   0.000000
     9  H    1.107243   1.808119   1.808119   0.000000
    10  H    1.107242   1.808119   1.808119   1.808119   0.000000
 Symmetry turned off by external request.
 This structure is nearly, but not quite of a higher symmetry.
 Consider Symm=Loose if the higher symmetry is desired.
 Framework group  C1[X(C2H8)]
 Deg. of freedom    24
 Rotational constants (GHZ):     76.6916052      5.1789194      5.1789194
   276 basis functions,   360 primitive gaussians,   310 cartesian basis functions
     5 alpha electrons        5 beta electrons
       nuclear repulsion energy        13.2261669790 Hartrees.
 IMHF & INEx in M05                  614413                  385587
 NAtoms=   10 NActive=   10 NUniq=   10 SFac= 1.00D+00 NAtFMM=   60 NAOKFM=F Big=F
 ExpMin= 2.53D-02 ExpMax= 8.24D+03 ExpMxC= 2.81D+02 IAcc=3 IRadAn=         5 AccDes= 0.00D+00
 Harris functional with IExCor= 1009 and IRadAn=       5 diagonalized for initial guess.
 HarFok:  IExCor= 1009 AccDes= 0.00D+00 IRadAn=         5 IDoV= 1 UseB2=F ITyADJ=14
 ICtDFT=  3500011 ScaDFX=  1.000000  1.000000  1.000000  1.000000
 FoFCou: FMM=F IPFlag=           0 FMFlag=      100000 FMFlg1=           0
         NFxFlg=           0 DoJE=T BraDBF=F KetDBF=T FulRan=T
         wScrn=  0.000000 ICntrl=     500 IOpCl=  0 I1Cent=   200000004 NGrid=           0
         NMat0=    1 NMatS0=      1 NMatT0=    0 NMatD0=    1 NMtDS0=    0 NMtDT0=    0
 Symmetry not used in FoFCou.
 SCF Done:  E(RM05) =  -45.9514604132     A.U. after   10 cycles
            NFock= 10  Conv=0.76D-08     -V/T= 2.0335

 **********************************************************************

            Population analysis using the SCF density.

 **********************************************************************

 Alpha  occ. eigenvalues --  -12.07084  -0.99701  -0.71494  -0.71487  -0.71483
 Alpha virt. eigenvalues --   -0.09132  -0.01923  -0.01907  -0.01889  -0.00642
 Alpha virt. eigenvalues --   -0.00513  -0.00443   0.03059   0.03857   0.04474
 Alpha virt. eigenvalues --    0.05496   0.05969   0.06165   0.07049   0.07771
 Alpha virt. eigenvalues --    0.08592   0.09792   0.10888   0.11940   0.13549
 Alpha virt. eigenvalues --    0.14924   0.17458   0.18654   0.19301   0.19922
 Alpha virt. eigenvalues --    0.20678   0.21123   0.21578   0.22341   0.23730
 Alpha virt. eigenvalues --    0.24059   0.24462   0.25023   0.26125   0.26365
 Alpha virt. eigenvalues --    0.26823   0.28114   0.28824   0.29725   0.30872
 Alpha virt. eigenvalues --    0.33127   0.33712   0.34755   0.36203   0.37202
 Alpha virt. eigenvalues --    0.37884   0.38717   0.38986   0.40527   0.41883
 Alpha virt. eigenvalues --    0.43341   0.44193   0.45156   0.46159   0.46752
 Alpha virt. eigenvalues --    0.49285   0.50217   0.52664   0.53854   0.54614
 Alpha virt. eigenvalues --    0.55615   0.56256   0.57507   0.58628   0.59734
 Alpha virt. eigenvalues --    0.60963   0.63084   0.64182   0.64782   0.65417
 Alpha virt. eigenvalues --    0.67527   0.68103   0.70683   0.71482   0.72234
 Alpha virt. eigenvalues --    0.73642   0.75887   0.78177   0.80250   0.81246
 Alpha virt. eigenvalues --    0.81872   0.83410   0.85584   0.87162   0.88583
 Alpha virt. eigenvalues --    0.89731   0.90826   0.91731   0.93235   0.93878
 Alpha virt. eigenvalues --    0.94260   0.95334   0.97070   0.99866   1.00105
 Alpha virt. eigenvalues --    1.01884   1.02508   1.03602   1.05709   1.06637
 Alpha virt. eigenvalues --    1.08134   1.08965   1.10691   1.12616   1.14011
 Alpha virt. eigenvalues --    1.14884   1.17224   1.18627   1.19245   1.22325
 Alpha virt. eigenvalues --    1.22713   1.23959   1.25068   1.25665   1.27423
 Alpha virt. eigenvalues --    1.27552   1.28655   1.29949   1.31536   1.32463
 Alpha virt. eigenvalues --    1.34757   1.35508   1.36372   1.37318   1.38274
 Alpha virt. eigenvalues --    1.41778   1.43037   1.45468   1.47680   1.48969
 Alpha virt. eigenvalues --    1.51404   1.53091   1.58062   1.60059   1.62094
 Alpha virt. eigenvalues --    1.62687   1.67703   1.70159   1.73684   1.74295
 Alpha virt. eigenvalues --    1.78322   1.81192   1.82203   1.84234   1.85672
 Alpha virt. eigenvalues --    1.87501   1.89251   1.93072   1.93575   2.00104
 Alpha virt. eigenvalues --    2.00763   2.03444   2.04688   2.05585   2.09049
 Alpha virt. eigenvalues --    2.14155   2.22103   2.29527   2.32192   2.35051
 Alpha virt. eigenvalues --    2.42836   2.45518   2.50193   2.52929   2.54606
 Alpha virt. eigenvalues --    2.63405   2.65653   2.67476   2.69987   2.87152
 Alpha virt. eigenvalues --    2.98397   3.00780   3.05461   3.09903   3.10674
 Alpha virt. eigenvalues --    3.11739   3.16732   3.21114   3.22864   3.27670
 Alpha virt. eigenvalues --    3.29167   3.45651   3.47966   3.50099   3.50287
 Alpha virt. eigenvalues --    3.51271   3.53248   3.57374   3.58375   3.68850
 Alpha virt. eigenvalues --    3.76140   3.90013   3.90738   3.91840   3.94082
 Alpha virt. eigenvalues --    3.97257   4.01375   4.03009   4.03244   4.05346
 Alpha virt. eigenvalues --    4.06674   4.08974   4.09610   4.12380   4.16316
 Alpha virt. eigenvalues --    4.17182   4.18544   4.21211   4.28090   4.29785
 Alpha virt. eigenvalues --    4.33093   4.35950   4.36721   4.37868   4.45655
 Alpha virt. eigenvalues --    4.46385   4.47902   4.50114   4.51990   4.53912
 Alpha virt. eigenvalues --    4.56414   4.57661   4.61628   4.66793   4.70580
 Alpha virt. eigenvalues --    4.82077   4.86903   4.87547   4.88849   4.89226
 Alpha virt. eigenvalues --    4.90825   4.91567   4.97222   5.01331   5.02766
 Alpha virt. eigenvalues --    5.07880   5.13734   5.16223   5.17315   5.22378
 Alpha virt. eigenvalues --    5.24225   5.27255   5.28478   5.30927   5.39325
 Alpha virt. eigenvalues --    5.45314   5.46258   5.47304   5.49553   5.63132
 Alpha virt. eigenvalues --    5.65370   5.67582   5.76722   6.08787   6.11530
 Alpha virt. eigenvalues --    6.17980   6.19037   6.19617   6.77913   6.79523
 Alpha virt. eigenvalues --    6.89841   6.96000   7.57821   7.65755   7.67233
 Alpha virt. eigenvalues --    8.02386   8.05171   8.17683  10.34645  15.26326
 Alpha virt. eigenvalues --   53.06702
          Condensed to atoms (all electrons):
 Mulliken charges:
               1
     1  C    0.240895
     2  H   -0.096604
     3  H   -0.109408
     4  H    0.668259
     5  H   -0.668326
     6  C   -0.050935
     7  H    0.020624
     8  H    0.001058
     9  H    0.004612
    10  H   -0.010176
 Sum of Mulliken charges =  -0.00000
 Mulliken charges with hydrogens summed into heavy atoms:
               1
     1  C    0.034817
     6  C   -0.034817
 Electronic spatial extent (au):  <R**2>=             35.5796
 Charge=             -0.0000 electrons
 Dipole moment (field-independent basis, Debye):
    X=             -0.0004    Y=              0.0009    Z=             -0.0011  Tot=              0.0015

 Test job not archived.
 1\1\GINC-CHIMERA-NODE50\SP\RM05\Gen\C2H8\CONNORNM\08-Dec-2018\0\\#T M0
 5/Gen test Massage SCF=(tight,maxcyc=40)\\M05 opt\\0,1\C,0,0.,0.,0.\H,
 0,1.1046153,0.,0.07622995\H,0,-0.36046122,-1.03784081,-0.13762312\H,0,
 -0.43395618,0.42150985,0.92736047\H,0,-0.31019789,0.61633096,-0.865967
 3\C,0,0.,0.,3.36928136\H,0,-0.33600022,1.05501324,3.37535389\H,0,-0.67
 142841,-0.60487116,4.00904752\H,0,-0.02707729,-0.39001338,2.33335552\H
 ,0,1.03450592,-0.06012871,3.75936852\\Version=AS64L-G09RevD.01\HF=-45.
 9514604\RMSD=7.617e-09\Dipole=-0.0001555,0.0003536,-0.0004319\Quadrupo
 le=-0.0007315,0.0001302,0.0006013,-0.0004438,0.0008333,-0.0013148\PG=C
 01 [X(C2H8)]\\@


 THE CHYMISTS ARE A STRANGE CLASS OF MORTALS IMPELLED
 BY AN ALMOST INSANE IMPULSE TO SEEK THEIR PLEASURE
 AMONG SMOKE AND VAPOR, SOOT AND FLAME, POISONS AND
 POVERTY; YET AMONG ALL THESE EVILS I SEEM TO LIVE
 SO SWEETLY, THAT I MAY DIE IF I WOULD CHANGE PLACES
 WITH THE PERSIAN KING.
   --  JOHANN JOACHIM BECHER, 1635-1682
 ACTA LABORATORII CHYMICA MONACENSIS, 1669
 Job cpu time:       0 days  0 hours 17 minutes 24.1 seconds.
 File lengths (MBytes):  RWF=     41 Int=      0 D2E=      0 Chk=      4 Scr=      1
 Normal termination of Gaussian 09 at Sat Dec  8 15:16:08 2018.
