 Entering Gaussian System, Link 0=/data/szalewicgrp/connornm/opt/Gaussian/g09-M05-par/g09/g09
 AtFile(1): aug-cc-pVTZ.gbs
 Initial command:
 /data/szalewicgrp/connornm/opt/Gaussian/g09-M05-par/g09/l1.exe "/scratch/local/Gau-35860.inp" -scrdir="/scratch/local/"
 Entering Link 1 = /data/szalewicgrp/connornm/opt/Gaussian/g09-M05-par/g09/l1.exe PID=     35861.
  
 Copyright (c) 1988,1990,1992,1993,1995,1998,2003,2009,2013,
            Gaussian, Inc.  All Rights Reserved.
  
 This is part of the Gaussian(R) 09 program.  It is based on
 the Gaussian(R) 03 system (copyright 2003, Gaussian, Inc.),
 the Gaussian(R) 98 system (copyright 1998, Gaussian, Inc.),
 the Gaussian(R) 94 system (copyright 1995, Gaussian, Inc.),
 the Gaussian 92(TM) system (copyright 1992, Gaussian, Inc.),
 the Gaussian 90(TM) system (copyright 1990, Gaussian, Inc.),
 the Gaussian 88(TM) system (copyright 1988, Gaussian, Inc.),
 the Gaussian 86(TM) system (copyright 1986, Carnegie Mellon
 University), and the Gaussian 82(TM) system (copyright 1983,
 Carnegie Mellon University). Gaussian is a federally registered
 trademark of Gaussian, Inc.
  
 This software contains proprietary and confidential information,
 including trade secrets, belonging to Gaussian, Inc.
  
 This software is provided under written license and may be
 used, copied, transmitted, or stored only in accord with that
 written license.
  
 The following legend is applicable only to US Government
 contracts under FAR:
  
                    RESTRICTED RIGHTS LEGEND
  
 Use, reproduction and disclosure by the US Government is
 subject to restrictions as set forth in subparagraphs (a)
 and (c) of the Commercial Computer Software - Restricted
 Rights clause in FAR 52.227-19.
  
 Gaussian, Inc.
 340 Quinnipiac St., Bldg. 40, Wallingford CT 06492
  
  
 ---------------------------------------------------------------
 Warning -- This program may not be used in any manner that
 competes with the business of Gaussian, Inc. or will provide
 assistance to any competitor of Gaussian, Inc.  The licensee
 of this program is prohibited from giving any competitor of
 Gaussian, Inc. access to this program.  By using this program,
 the user acknowledges that Gaussian, Inc. is engaged in the
 business of creating and licensing software in the field of
 computational chemistry and represents and warrants to the
 licensee that it is not a competitor of Gaussian, Inc. and that
 it will not use this program in any manner prohibited above.
 ---------------------------------------------------------------
  

 Cite this work as:
 Gaussian 09, Revision D.01,
 M. J. Frisch, G. W. Trucks, H. B. Schlegel, G. E. Scuseria, 
 M. A. Robb, J. R. Cheeseman, G. Scalmani, V. Barone, B. Mennucci, 
 G. A. Petersson, H. Nakatsuji, M. Caricato, X. Li, H. P. Hratchian, 
 A. F. Izmaylov, J. Bloino, G. Zheng, J. L. Sonnenberg, M. Hada, 
 M. Ehara, K. Toyota, R. Fukuda, J. Hasegawa, M. Ishida, T. Nakajima, 
 Y. Honda, O. Kitao, H. Nakai, T. Vreven, J. A. Montgomery, Jr., 
 J. E. Peralta, F. Ogliaro, M. Bearpark, J. J. Heyd, E. Brothers, 
 K. N. Kudin, V. N. Staroverov, T. Keith, R. Kobayashi, J. Normand, 
 K. Raghavachari, A. Rendell, J. C. Burant, S. S. Iyengar, J. Tomasi, 
 M. Cossi, N. Rega, J. M. Millam, M. Klene, J. E. Knox, J. B. Cross, 
 V. Bakken, C. Adamo, J. Jaramillo, R. Gomperts, R. E. Stratmann, 
 O. Yazyev, A. J. Austin, R. Cammi, C. Pomelli, J. W. Ochterski, 
 R. L. Martin, K. Morokuma, V. G. Zakrzewski, G. A. Voth, 
 P. Salvador, J. J. Dannenberg, S. Dapprich, A. D. Daniels, 
 O. Farkas, J. B. Foresman, J. V. Ortiz, J. Cioslowski, 
 and D. J. Fox, Gaussian, Inc., Wallingford CT, 2013.
 
 ******************************************
 Gaussian 09:  AS64L-G09RevD.01 24-Apr-2013
                 7-Dec-2018 
 ******************************************
 %Chk=CH400010
 %Mem=2GB
 %NProcShared=16
 Will use up to   16 processors via shared memory.
 ---------------------------------------------
 #T M05/Gen test Massage SCF=(tight,maxcyc=40)
 ---------------------------------------------
 -------
 M05 opt
 -------
 Symbolic Z-matrix:
 Charge =  0 Multiplicity = 1
 6                     0.        0.        0. 
 1                     1.02679   0.        0.41436 
 1                    -0.07708   0.76658  -0.79524 
 1                    -0.22641  -0.99696  -0.4252 
 1                    -0.72329   0.23038   0.80607 
 6-Bq                  0.        0.        4.17587 
 1-Bq                  0.80272   0.68856   4.50374 
 1-Bq                 -0.95567   0.29418   4.6514 
 1-Bq                 -0.10418   0.05227   3.07478 
 1-Bq                  0.25714  -1.03501   4.47355 
 
                    Distance matrix (angstroms):
                    1          2          3          4          5
     1  C    0.000000
     2  H    1.107243   0.000000
     3  H    1.107243   1.808119   0.000000
     4  H    1.107242   1.808119   1.808119   0.000000
     5  H    1.107243   1.808119   1.808119   1.808119   0.000000
     6  C    4.175867   3.899128   5.030453   4.713278   3.454234
     7  H    4.626251   4.152996   5.372090   5.309857   4.026341
     8  H    4.757664   4.687128   5.537232   5.288734   3.852868
     9  H    3.076985   2.891302   3.935477   3.655906   2.358397
    10  H    4.598912   4.259177   5.578308   4.922699   4.001603
                    6          7          8          9         10
     6  C    0.000000
     7  H    1.107243   0.000000
     8  H    1.107243   1.808119   0.000000
     9  H    1.107243   1.808119   1.808119   0.000000
    10  H    1.107243   1.808119   1.808119   1.808119   0.000000
 Symmetry turned off by external request.
 This structure is nearly, but not quite of a higher symmetry.
 Consider Symm=Loose if the higher symmetry is desired.
 Framework group  C1[X(C2H8)]
 Deg. of freedom    24
 Rotational constants (GHZ):     76.6916053      3.4528549      3.4528549
   276 basis functions,   360 primitive gaussians,   310 cartesian basis functions
     5 alpha electrons        5 beta electrons
       nuclear repulsion energy        13.2261670097 Hartrees.
 IMHF & INEx in M05                  614413                  385587
 NAtoms=   10 NActive=   10 NUniq=   10 SFac= 1.00D+00 NAtFMM=   60 NAOKFM=F Big=F
 ExpMin= 2.53D-02 ExpMax= 8.24D+03 ExpMxC= 2.81D+02 IAcc=3 IRadAn=         5 AccDes= 0.00D+00
 Harris functional with IExCor= 1009 and IRadAn=       5 diagonalized for initial guess.
 HarFok:  IExCor= 1009 AccDes= 0.00D+00 IRadAn=         5 IDoV= 1 UseB2=F ITyADJ=14
 ICtDFT=  3500011 ScaDFX=  1.000000  1.000000  1.000000  1.000000
 FoFCou: FMM=F IPFlag=           0 FMFlag=      100000 FMFlg1=           0
         NFxFlg=           0 DoJE=T BraDBF=F KetDBF=T FulRan=T
         wScrn=  0.000000 ICntrl=     500 IOpCl=  0 I1Cent=   200000004 NGrid=           0
         NMat0=    1 NMatS0=      1 NMatT0=    0 NMatD0=    1 NMtDS0=    0 NMtDT0=    0
 Symmetry not used in FoFCou.
 SCF Done:  E(RM05) =  -40.9122297173     A.U. after    7 cycles
            NFock=  7  Conv=0.41D-08     -V/T= 2.0128

 **********************************************************************

            Population analysis using the SCF density.

 **********************************************************************

 Alpha  occ. eigenvalues --  -10.74529  -0.82768  -0.48752  -0.48751  -0.48751
 Alpha virt. eigenvalues --   -0.00121   0.02291   0.02804   0.02856   0.04504
 Alpha virt. eigenvalues --    0.04947   0.05492   0.06469   0.08571   0.09324
 Alpha virt. eigenvalues --    0.09762   0.10507   0.10844   0.11083   0.12166
 Alpha virt. eigenvalues --    0.13166   0.15183   0.15865   0.16870   0.17454
 Alpha virt. eigenvalues --    0.20544   0.22031   0.22382   0.25676   0.26092
 Alpha virt. eigenvalues --    0.26297   0.26695   0.27496   0.27945   0.28887
 Alpha virt. eigenvalues --    0.28973   0.29897   0.30123   0.30686   0.31102
 Alpha virt. eigenvalues --    0.31766   0.32575   0.34548   0.34800   0.35280
 Alpha virt. eigenvalues --    0.36182   0.36721   0.37585   0.38498   0.39774
 Alpha virt. eigenvalues --    0.39972   0.41265   0.42160   0.44316   0.45746
 Alpha virt. eigenvalues --    0.46788   0.48159   0.49276   0.49575   0.52362
 Alpha virt. eigenvalues --    0.54882   0.56333   0.57815   0.59490   0.63300
 Alpha virt. eigenvalues --    0.64579   0.65134   0.65658   0.66038   0.69853
 Alpha virt. eigenvalues --    0.70996   0.72237   0.74213   0.74686   0.78323
 Alpha virt. eigenvalues --    0.78578   0.80478   0.82657   0.84629   0.85903
 Alpha virt. eigenvalues --    0.86531   0.88827   0.90743   0.92331   0.93063
 Alpha virt. eigenvalues --    0.94287   0.94840   0.95247   0.96393   0.96761
 Alpha virt. eigenvalues --    0.98601   0.99914   1.00836   1.01686   1.02038
 Alpha virt. eigenvalues --    1.03056   1.03560   1.04063   1.05040   1.05445
 Alpha virt. eigenvalues --    1.06745   1.07586   1.08360   1.09098   1.10013
 Alpha virt. eigenvalues --    1.10260   1.12008   1.12917   1.13629   1.16144
 Alpha virt. eigenvalues --    1.17433   1.18560   1.18928   1.23215   1.24282
 Alpha virt. eigenvalues --    1.25937   1.28415   1.29235   1.30195   1.32527
 Alpha virt. eigenvalues --    1.36945   1.37208   1.38591   1.39178   1.41442
 Alpha virt. eigenvalues --    1.44970   1.45952   1.46371   1.47171   1.48129
 Alpha virt. eigenvalues --    1.50568   1.51089   1.52852   1.58085   1.59736
 Alpha virt. eigenvalues --    1.62380   1.67198   1.68134   1.69346   1.70293
 Alpha virt. eigenvalues --    1.72645   1.74133   1.77091   1.80522   1.81835
 Alpha virt. eigenvalues --    1.85581   1.86838   1.87940   1.89542   1.94681
 Alpha virt. eigenvalues --    1.96612   1.98902   2.00918   2.01789   2.02913
 Alpha virt. eigenvalues --    2.03699   2.05564   2.07138   2.09451   2.14148
 Alpha virt. eigenvalues --    2.20570   2.28075   2.31091   2.34865   2.38191
 Alpha virt. eigenvalues --    2.47596   2.48864   2.66651   2.67444   2.67997
 Alpha virt. eigenvalues --    2.73778   2.86158   2.90699   2.94443   3.00873
 Alpha virt. eigenvalues --    3.20655   3.22071   3.24914   3.25407   3.27158
 Alpha virt. eigenvalues --    3.28116   3.29922   3.38926   3.57629   3.58196
 Alpha virt. eigenvalues --    3.59928   3.71103   3.72084   3.72569   3.74418
 Alpha virt. eigenvalues --    3.76653   3.77036   3.81362   3.81777   3.84449
 Alpha virt. eigenvalues --    3.89667   3.98550   3.99067   3.99183   4.03878
 Alpha virt. eigenvalues --    4.08840   4.13109   4.15899   4.18029   4.19453
 Alpha virt. eigenvalues --    4.20028   4.22109   4.32215   4.35321   4.35779
 Alpha virt. eigenvalues --    4.36685   4.37020   4.37650   4.38959   4.40707
 Alpha virt. eigenvalues --    4.42310   4.44536   4.47589   4.50710   4.51797
 Alpha virt. eigenvalues --    4.52108   4.52790   4.55805   4.59749   4.60397
 Alpha virt. eigenvalues --    4.67199   4.76050   4.78688   4.79220   4.80116
 Alpha virt. eigenvalues --    4.83340   4.91188   4.91679   4.92440   5.13932
 Alpha virt. eigenvalues --    5.14466   5.15183   5.15623   5.15833   5.19032
 Alpha virt. eigenvalues --    5.23922   5.29153   5.29582   5.30364   5.32248
 Alpha virt. eigenvalues --    5.33389   5.42649   5.43916   5.48002   5.48775
 Alpha virt. eigenvalues --    5.49768   5.58345   5.59703   5.60242   5.76281
 Alpha virt. eigenvalues --    6.04830   6.06100   6.08458   6.12615   6.13044
 Alpha virt. eigenvalues --    6.14415   6.22747   6.22797   6.79468   6.79796
 Alpha virt. eigenvalues --    6.94645   7.01572   7.63858   7.65547   7.66552
 Alpha virt. eigenvalues --    8.01718   8.03391   8.11691  10.36372  16.62682
 Alpha virt. eigenvalues --   53.09221
          Condensed to atoms (all electrons):
 Mulliken charges:
               1
     1  C   -1.831794
     2  H    0.453979
     3  H    0.418806
     4  H    0.448613
     5  H    0.482474
     6  C    0.014803
     7  H    0.001462
     8  H    0.000580
     9  H    0.008983
    10  H    0.002094
 Sum of Mulliken charges =  -0.00000
 Mulliken charges with hydrogens summed into heavy atoms:
               1
     1  C   -0.027923
     6  C    0.027923
 Electronic spatial extent (au):  <R**2>=             36.5428
 Charge=              0.0000 electrons
 Dipole moment (field-independent basis, Debye):
    X=             -0.0001    Y=             -0.0000    Z=             -0.0002  Tot=              0.0002

 Test job not archived.
 1\1\GINC-CHIMERA-NODE56\SP\RM05\Gen\C2H8\CONNORNM\07-Dec-2018\0\\#T M0
 5/Gen test Massage SCF=(tight,maxcyc=40)\\M05 opt\\0,1\C,0,0.,0.,0.\H,
 0,1.02678609,0.,0.4143625\H,0,-0.07708056,0.76657767,-0.79523784\H,0,-
 0.22641106,-0.99696055,-0.42519835\H,0,-0.72329447,0.23038288,0.806073
 69\C,0,0.,0.,4.17586654\H,0,0.80272155,0.6885637,4.50374474\H,0,-0.955
 67426,0.29418011,4.6513986\H,0,-0.10418287,0.05227014,3.0747763\H,0,0.
 25713558,-1.03501395,4.47354654\\Version=AS64L-G09RevD.01\HF=-40.91222
 97\RMSD=4.092e-09\Dipole=-0.0000556,-0.0000115,-0.000059\Quadrupole=0.
 0002129,-0.0005414,0.0003284,-0.0003787,0.000156,-0.0001338\PG=C01 [X(
 C2H8)]\\@


 ... SUBJECTS WHICH DISCLOSE THEIR FULL POWER, MEANING AND BEAUTY AS SOON
 AS THEY ARE PRESENTED TO THE MIND HAVE VERY LITTLE OF THOSE QUALITIES
 TO DISCLOSE.
                           -- CHARLES DUTTON (1882)
 Job cpu time:       0 days  0 hours 11 minutes  1.4 seconds.
 File lengths (MBytes):  RWF=     41 Int=      0 D2E=      0 Chk=      4 Scr=      1
 Normal termination of Gaussian 09 at Fri Dec  7 21:08:42 2018.
