 Entering Gaussian System, Link 0=/data/szalewicgrp/connornm/opt/Gaussian/g09-M05-par/g09/g09
 AtFile(1): aug-cc-pVTZ.gbs
 Initial command:
 /data/szalewicgrp/connornm/opt/Gaussian/g09-M05-par/g09/l1.exe "/scratch/local/Gau-46056.inp" -scrdir="/scratch/local/"
 Entering Link 1 = /data/szalewicgrp/connornm/opt/Gaussian/g09-M05-par/g09/l1.exe PID=     46057.
  
 Copyright (c) 1988,1990,1992,1993,1995,1998,2003,2009,2013,
            Gaussian, Inc.  All Rights Reserved.
  
 This is part of the Gaussian(R) 09 program.  It is based on
 the Gaussian(R) 03 system (copyright 2003, Gaussian, Inc.),
 the Gaussian(R) 98 system (copyright 1998, Gaussian, Inc.),
 the Gaussian(R) 94 system (copyright 1995, Gaussian, Inc.),
 the Gaussian 92(TM) system (copyright 1992, Gaussian, Inc.),
 the Gaussian 90(TM) system (copyright 1990, Gaussian, Inc.),
 the Gaussian 88(TM) system (copyright 1988, Gaussian, Inc.),
 the Gaussian 86(TM) system (copyright 1986, Carnegie Mellon
 University), and the Gaussian 82(TM) system (copyright 1983,
 Carnegie Mellon University). Gaussian is a federally registered
 trademark of Gaussian, Inc.
  
 This software contains proprietary and confidential information,
 including trade secrets, belonging to Gaussian, Inc.
  
 This software is provided under written license and may be
 used, copied, transmitted, or stored only in accord with that
 written license.
  
 The following legend is applicable only to US Government
 contracts under FAR:
  
                    RESTRICTED RIGHTS LEGEND
  
 Use, reproduction and disclosure by the US Government is
 subject to restrictions as set forth in subparagraphs (a)
 and (c) of the Commercial Computer Software - Restricted
 Rights clause in FAR 52.227-19.
  
 Gaussian, Inc.
 340 Quinnipiac St., Bldg. 40, Wallingford CT 06492
  
  
 ---------------------------------------------------------------
 Warning -- This program may not be used in any manner that
 competes with the business of Gaussian, Inc. or will provide
 assistance to any competitor of Gaussian, Inc.  The licensee
 of this program is prohibited from giving any competitor of
 Gaussian, Inc. access to this program.  By using this program,
 the user acknowledges that Gaussian, Inc. is engaged in the
 business of creating and licensing software in the field of
 computational chemistry and represents and warrants to the
 licensee that it is not a competitor of Gaussian, Inc. and that
 it will not use this program in any manner prohibited above.
 ---------------------------------------------------------------
  

 Cite this work as:
 Gaussian 09, Revision D.01,
 M. J. Frisch, G. W. Trucks, H. B. Schlegel, G. E. Scuseria, 
 M. A. Robb, J. R. Cheeseman, G. Scalmani, V. Barone, B. Mennucci, 
 G. A. Petersson, H. Nakatsuji, M. Caricato, X. Li, H. P. Hratchian, 
 A. F. Izmaylov, J. Bloino, G. Zheng, J. L. Sonnenberg, M. Hada, 
 M. Ehara, K. Toyota, R. Fukuda, J. Hasegawa, M. Ishida, T. Nakajima, 
 Y. Honda, O. Kitao, H. Nakai, T. Vreven, J. A. Montgomery, Jr., 
 J. E. Peralta, F. Ogliaro, M. Bearpark, J. J. Heyd, E. Brothers, 
 K. N. Kudin, V. N. Staroverov, T. Keith, R. Kobayashi, J. Normand, 
 K. Raghavachari, A. Rendell, J. C. Burant, S. S. Iyengar, J. Tomasi, 
 M. Cossi, N. Rega, J. M. Millam, M. Klene, J. E. Knox, J. B. Cross, 
 V. Bakken, C. Adamo, J. Jaramillo, R. Gomperts, R. E. Stratmann, 
 O. Yazyev, A. J. Austin, R. Cammi, C. Pomelli, J. W. Ochterski, 
 R. L. Martin, K. Morokuma, V. G. Zakrzewski, G. A. Voth, 
 P. Salvador, J. J. Dannenberg, S. Dapprich, A. D. Daniels, 
 O. Farkas, J. B. Foresman, J. V. Ortiz, J. Cioslowski, 
 and D. J. Fox, Gaussian, Inc., Wallingford CT, 2013.
 
 ******************************************
 Gaussian 09:  AS64L-G09RevD.01 24-Apr-2013
                 7-Dec-2018 
 ******************************************
 %Chk=CH400114
 %Mem=2GB
 %NProcShared=16
 Will use up to   16 processors via shared memory.
 ---------------------------------------------
 #T M05/Gen test Massage SCF=(tight,maxcyc=40)
 ---------------------------------------------
 -------
 M05 opt
 -------
 Symbolic Z-matrix:
 Charge =  0 Multiplicity = 1
 6                     0.        0.        0. 
 1                     1.10669   0.        0.0351 
 1                    -0.33855  -0.41605  -0.96865 
 1                    -0.39549  -0.62113   0.8269 
 1                    -0.37265   1.03718   0.10665 
 6-Bq                  0.        0.        3.78749 
 1-Bq                  1.03853   0.20283   3.46146 
 1-Bq                 -0.32045   0.77979   4.50528 
 1-Bq                 -0.67176   0.01002   2.90737 
 1-Bq                 -0.04631  -0.99264   4.27587 
 
                    Distance matrix (angstroms):
                    1          2          3          4          5
     1  C    0.000000
     2  H    1.107243   0.000000
     3  H    1.107242   1.808119   0.000000
     4  H    1.107242   1.808119   1.808119   0.000000
     5  H    1.107242   1.808119   1.808119   1.808119   0.000000
     6  C    3.787495   3.912189   4.786292   3.050792   3.842299
     7  H    3.619581   3.433032   4.680295   3.110661   3.733943
     8  H    4.583484   4.756819   5.603058   3.936840   4.406468
     9  H    2.983986   3.378302   3.913576   2.191581   2.998098
    10  H    4.389822   4.505428   5.284204   3.486449   4.648558
                    6          7          8          9         10
     6  C    0.000000
     7  H    1.107243   0.000000
     8  H    1.107243   1.808119   0.000000
     9  H    1.107242   1.808119   1.808119   0.000000
    10  H    1.107242   1.808119   1.808119   1.808119   0.000000
 Symmetry turned off by external request.
 This structure is nearly, but not quite of a higher symmetry.
 Consider Symm=Loose if the higher symmetry is desired.
 Framework group  C1[X(C2H8)]
 Deg. of freedom    24
 Rotational constants (GHZ):     76.6916057      4.1569257      4.1569257
   276 basis functions,   360 primitive gaussians,   310 cartesian basis functions
     5 alpha electrons        5 beta electrons
       nuclear repulsion energy        13.2261670275 Hartrees.
 IMHF & INEx in M05                  614413                  385587
 NAtoms=   10 NActive=   10 NUniq=   10 SFac= 1.00D+00 NAtFMM=   60 NAOKFM=F Big=F
 ExpMin= 2.53D-02 ExpMax= 8.24D+03 ExpMxC= 2.81D+02 IAcc=3 IRadAn=         5 AccDes= 0.00D+00
 Harris functional with IExCor= 1009 and IRadAn=       5 diagonalized for initial guess.
 HarFok:  IExCor= 1009 AccDes= 0.00D+00 IRadAn=         5 IDoV= 1 UseB2=F ITyADJ=14
 ICtDFT=  3500011 ScaDFX=  1.000000  1.000000  1.000000  1.000000
 FoFCou: FMM=F IPFlag=           0 FMFlag=      100000 FMFlg1=           0
         NFxFlg=           0 DoJE=T BraDBF=F KetDBF=T FulRan=T
         wScrn=  0.000000 ICntrl=     500 IOpCl=  0 I1Cent=   200000004 NGrid=           0
         NMat0=    1 NMatS0=      1 NMatT0=    0 NMatD0=    1 NMtDS0=    0 NMtDT0=    0
 Symmetry not used in FoFCou.
 SCF Done:  E(RM05) =  -40.9122396939     A.U. after    7 cycles
            NFock=  7  Conv=0.43D-08     -V/T= 2.0127

 **********************************************************************

            Population analysis using the SCF density.

 **********************************************************************

 Alpha  occ. eigenvalues --  -10.74529  -0.82768  -0.48752  -0.48751  -0.48751
 Alpha virt. eigenvalues --   -0.00115   0.02331   0.02770   0.02873   0.04560
 Alpha virt. eigenvalues --    0.05187   0.05425   0.06914   0.07980   0.09203
 Alpha virt. eigenvalues --    0.09936   0.10098   0.10930   0.11740   0.12021
 Alpha virt. eigenvalues --    0.12850   0.15076   0.15984   0.16166   0.18796
 Alpha virt. eigenvalues --    0.19506   0.22432   0.22978   0.25038   0.25772
 Alpha virt. eigenvalues --    0.26583   0.26904   0.27943   0.28212   0.28535
 Alpha virt. eigenvalues --    0.28972   0.29518   0.29771   0.31149   0.32317
 Alpha virt. eigenvalues --    0.32368   0.33393   0.34813   0.34981   0.35804
 Alpha virt. eigenvalues --    0.36448   0.37095   0.38439   0.39147   0.40737
 Alpha virt. eigenvalues --    0.41716   0.42682   0.43180   0.43404   0.44713
 Alpha virt. eigenvalues --    0.46566   0.48203   0.49460   0.50644   0.53233
 Alpha virt. eigenvalues --    0.55939   0.56761   0.57402   0.59661   0.61026
 Alpha virt. eigenvalues --    0.63273   0.64499   0.64935   0.66795   0.67360
 Alpha virt. eigenvalues --    0.71141   0.71854   0.74679   0.75916   0.77545
 Alpha virt. eigenvalues --    0.79665   0.80504   0.84455   0.85202   0.86254
 Alpha virt. eigenvalues --    0.86720   0.88286   0.90262   0.92478   0.92611
 Alpha virt. eigenvalues --    0.94394   0.94529   0.95993   0.96864   0.97911
 Alpha virt. eigenvalues --    0.98237   0.98692   1.00352   1.00827   1.01921
 Alpha virt. eigenvalues --    1.02750   1.03641   1.04696   1.05314   1.05916
 Alpha virt. eigenvalues --    1.06624   1.08600   1.10236   1.10469   1.11056
 Alpha virt. eigenvalues --    1.12210   1.12808   1.14398   1.16631   1.17876
 Alpha virt. eigenvalues --    1.19328   1.20387   1.22923   1.23929   1.24192
 Alpha virt. eigenvalues --    1.26419   1.28866   1.29856   1.33312   1.35544
 Alpha virt. eigenvalues --    1.36489   1.37136   1.38364   1.39973   1.42914
 Alpha virt. eigenvalues --    1.45045   1.45629   1.46329   1.47737   1.48096
 Alpha virt. eigenvalues --    1.50439   1.52456   1.56042   1.60717   1.61434
 Alpha virt. eigenvalues --    1.63256   1.65834   1.67286   1.69285   1.71326
 Alpha virt. eigenvalues --    1.73401   1.75163   1.78632   1.80743   1.81160
 Alpha virt. eigenvalues --    1.83577   1.86762   1.90637   1.91604   1.95611
 Alpha virt. eigenvalues --    1.98133   1.99123   2.01065   2.01494   2.03655
 Alpha virt. eigenvalues --    2.04004   2.06014   2.06830   2.08290   2.09822
 Alpha virt. eigenvalues --    2.19973   2.29863   2.31267   2.36199   2.41774
 Alpha virt. eigenvalues --    2.45677   2.52046   2.65409   2.67413   2.68102
 Alpha virt. eigenvalues --    2.72187   2.82053   2.90736   2.94405   2.95120
 Alpha virt. eigenvalues --    3.20921   3.22473   3.24684   3.26256   3.27755
 Alpha virt. eigenvalues --    3.29713   3.30851   3.33635   3.57838   3.59544
 Alpha virt. eigenvalues --    3.61561   3.66561   3.71741   3.72878   3.73378
 Alpha virt. eigenvalues --    3.75610   3.76899   3.79654   3.83590   3.84359
 Alpha virt. eigenvalues --    3.85412   3.97939   3.99882   4.02327   4.03316
 Alpha virt. eigenvalues --    4.04898   4.13505   4.18118   4.18507   4.19954
 Alpha virt. eigenvalues --    4.21979   4.26266   4.32724   4.34427   4.34708
 Alpha virt. eigenvalues --    4.35448   4.38504   4.39030   4.40937   4.42639
 Alpha virt. eigenvalues --    4.44923   4.47638   4.49910   4.50770   4.52536
 Alpha virt. eigenvalues --    4.53026   4.56295   4.57481   4.59091   4.60095
 Alpha virt. eigenvalues --    4.67654   4.75734   4.77641   4.79049   4.82228
 Alpha virt. eigenvalues --    4.82472   4.90729   4.91553   4.92969   5.12380
 Alpha virt. eigenvalues --    5.12965   5.14647   5.15514   5.16955   5.18168
 Alpha virt. eigenvalues --    5.23861   5.27868   5.28253   5.31079   5.32595
 Alpha virt. eigenvalues --    5.33620   5.40002   5.43839   5.46693   5.46848
 Alpha virt. eigenvalues --    5.50554   5.51914   5.58330   5.59544   5.63417
 Alpha virt. eigenvalues --    6.04994   6.08157   6.09094   6.12002   6.12471
 Alpha virt. eigenvalues --    6.16669   6.21628   6.22482   6.78947   6.79624
 Alpha virt. eigenvalues --    6.84304   6.96137   7.62305   7.64648   7.66074
 Alpha virt. eigenvalues --    8.01119   8.04130   8.08015  10.26415  16.76146
 Alpha virt. eigenvalues --   52.27152
          Condensed to atoms (all electrons):
 Mulliken charges:
               1
     1  C   -1.873511
     2  H    0.467557
     3  H    0.418723
     4  H    0.524320
     5  H    0.456667
     6  C    0.013709
     7  H   -0.001755
     8  H    0.001118
     9  H   -0.007652
    10  H    0.000823
 Sum of Mulliken charges =  -0.00000
 Mulliken charges with hydrogens summed into heavy atoms:
               1
     1  C   -0.006244
     6  C    0.006244
 Electronic spatial extent (au):  <R**2>=             36.5423
 Charge=             -0.0000 electrons
 Dipole moment (field-independent basis, Debye):
    X=             -0.0000    Y=             -0.0001    Z=             -0.0000  Tot=              0.0001

 Test job not archived.
 1\1\GINC-CHIMERA-NODE15\SP\RM05\Gen\C2H8\CONNORNM\07-Dec-2018\0\\#T M0
 5/Gen test Massage SCF=(tight,maxcyc=40)\\M05 opt\\0,1\C,0,0.,0.,0.\H,
 0,1.10668604,0.,0.03509941\H,0,-0.33854502,-0.41604855,-0.9686469\H,0,
 -0.39549223,-0.62113293,0.82690128\H,0,-0.37264878,1.03718148,0.106646
 21\C,0,0.,0.,3.78749465\H,0,1.0385309,0.20282684,3.46145662\H,0,-0.320
 45204,0.77979396,4.50528141\H,0,-0.67176405,0.01001722,2.90737042\H,0,
 -0.04631481,-0.99263802,4.27587017\\Version=AS64L-G09RevD.01\HF=-40.91
 22397\RMSD=4.267e-09\Dipole=-0.0000025,-0.0000305,-0.0000104\Quadrupol
 e=-0.0003596,0.0004604,-0.0001008,0.0006357,0.0001823,0.000439\PG=C01 
 [X(C2H8)]\\@


 Everywhere is walking distance if you have the time.
                                    -- Steven Wright
 Job cpu time:       0 days  0 hours 11 minutes 42.3 seconds.
 File lengths (MBytes):  RWF=     41 Int=      0 D2E=      0 Chk=      4 Scr=      1
 Normal termination of Gaussian 09 at Fri Dec  7 13:59:50 2018.
