 Entering Gaussian System, Link 0=/data/szalewicgrp/connornm/opt/Gaussian/g09-M05-par/g09/g09
 AtFile(1): aug-cc-pVTZ.gbs
 Initial command:
 /data/szalewicgrp/connornm/opt/Gaussian/g09-M05-par/g09/l1.exe "/scratch/local/Gau-28355.inp" -scrdir="/scratch/local/"
 Entering Link 1 = /data/szalewicgrp/connornm/opt/Gaussian/g09-M05-par/g09/l1.exe PID=     28356.
  
 Copyright (c) 1988,1990,1992,1993,1995,1998,2003,2009,2013,
            Gaussian, Inc.  All Rights Reserved.
  
 This is part of the Gaussian(R) 09 program.  It is based on
 the Gaussian(R) 03 system (copyright 2003, Gaussian, Inc.),
 the Gaussian(R) 98 system (copyright 1998, Gaussian, Inc.),
 the Gaussian(R) 94 system (copyright 1995, Gaussian, Inc.),
 the Gaussian 92(TM) system (copyright 1992, Gaussian, Inc.),
 the Gaussian 90(TM) system (copyright 1990, Gaussian, Inc.),
 the Gaussian 88(TM) system (copyright 1988, Gaussian, Inc.),
 the Gaussian 86(TM) system (copyright 1986, Carnegie Mellon
 University), and the Gaussian 82(TM) system (copyright 1983,
 Carnegie Mellon University). Gaussian is a federally registered
 trademark of Gaussian, Inc.
  
 This software contains proprietary and confidential information,
 including trade secrets, belonging to Gaussian, Inc.
  
 This software is provided under written license and may be
 used, copied, transmitted, or stored only in accord with that
 written license.
  
 The following legend is applicable only to US Government
 contracts under FAR:
  
                    RESTRICTED RIGHTS LEGEND
  
 Use, reproduction and disclosure by the US Government is
 subject to restrictions as set forth in subparagraphs (a)
 and (c) of the Commercial Computer Software - Restricted
 Rights clause in FAR 52.227-19.
  
 Gaussian, Inc.
 340 Quinnipiac St., Bldg. 40, Wallingford CT 06492
  
  
 ---------------------------------------------------------------
 Warning -- This program may not be used in any manner that
 competes with the business of Gaussian, Inc. or will provide
 assistance to any competitor of Gaussian, Inc.  The licensee
 of this program is prohibited from giving any competitor of
 Gaussian, Inc. access to this program.  By using this program,
 the user acknowledges that Gaussian, Inc. is engaged in the
 business of creating and licensing software in the field of
 computational chemistry and represents and warrants to the
 licensee that it is not a competitor of Gaussian, Inc. and that
 it will not use this program in any manner prohibited above.
 ---------------------------------------------------------------
  

 Cite this work as:
 Gaussian 09, Revision D.01,
 M. J. Frisch, G. W. Trucks, H. B. Schlegel, G. E. Scuseria, 
 M. A. Robb, J. R. Cheeseman, G. Scalmani, V. Barone, B. Mennucci, 
 G. A. Petersson, H. Nakatsuji, M. Caricato, X. Li, H. P. Hratchian, 
 A. F. Izmaylov, J. Bloino, G. Zheng, J. L. Sonnenberg, M. Hada, 
 M. Ehara, K. Toyota, R. Fukuda, J. Hasegawa, M. Ishida, T. Nakajima, 
 Y. Honda, O. Kitao, H. Nakai, T. Vreven, J. A. Montgomery, Jr., 
 J. E. Peralta, F. Ogliaro, M. Bearpark, J. J. Heyd, E. Brothers, 
 K. N. Kudin, V. N. Staroverov, T. Keith, R. Kobayashi, J. Normand, 
 K. Raghavachari, A. Rendell, J. C. Burant, S. S. Iyengar, J. Tomasi, 
 M. Cossi, N. Rega, J. M. Millam, M. Klene, J. E. Knox, J. B. Cross, 
 V. Bakken, C. Adamo, J. Jaramillo, R. Gomperts, R. E. Stratmann, 
 O. Yazyev, A. J. Austin, R. Cammi, C. Pomelli, J. W. Ochterski, 
 R. L. Martin, K. Morokuma, V. G. Zakrzewski, G. A. Voth, 
 P. Salvador, J. J. Dannenberg, S. Dapprich, A. D. Daniels, 
 O. Farkas, J. B. Foresman, J. V. Ortiz, J. Cioslowski, 
 and D. J. Fox, Gaussian, Inc., Wallingford CT, 2013.
 
 ******************************************
 Gaussian 09:  AS64L-G09RevD.01 24-Apr-2013
                 8-Dec-2018 
 ******************************************
 %Chk=CH400218
 %Mem=2GB
 %NProcShared=16
 Will use up to   16 processors via shared memory.
 ---------------------------------------------
 #T M05/Gen test Massage SCF=(tight,maxcyc=40)
 ---------------------------------------------
 -------
 M05 opt
 -------
 Symbolic Z-matrix:
 Charge =  0 Multiplicity = 1
 6                     0.        0.        0. 
 1                     0.93835   0.        0.58778 
 1                     0.19781  -0.40574  -1.01105 
 1                    -0.75461  -0.63011   0.50942 
 1                    -0.38155   1.03585  -0.08615 
 6-Bq                  0.        0.        2.89029 
 1-Bq                  0.2066    0.6341    3.77416 
 1-Bq                 -0.22305   0.64428   2.01786 
 1-Bq                  0.88631  -0.62597   2.66985 
 1-Bq                 -0.86987  -0.6524    3.09931 
 
                    Distance matrix (angstroms):
                    1          2          3          4          5
     1  C    0.000000
     2  H    1.107242   0.000000
     3  H    1.107242   1.808119   0.000000
     4  H    1.107243   1.808119   1.808119   0.000000
     5  H    1.107243   1.808119   1.808119   1.808119   0.000000
     6  C    2.890292   2.486375   3.927374   2.575855   3.174547
     7  H    3.832628   3.330247   4.896898   3.630519   3.925464
     8  H    2.129926   1.951677   3.233257   2.044994   2.145991
     9  H    2.881922   2.174753   3.751209   2.712948   3.458991
    10  H    3.284510   3.162759   4.253923   2.592547   3.638100
                    6          7          8          9         10
     6  C    0.000000
     7  H    1.107243   0.000000
     8  H    1.107243   1.808119   0.000000
     9  H    1.107243   1.808119   1.808119   0.000000
    10  H    1.107243   1.808119   1.808119   1.808119   0.000000
 Symmetry turned off by external request.
 This structure is nearly, but not quite of a higher symmetry.
 Consider Symm=Loose if the higher symmetry is desired.
 Framework group  C1[X(C2H8)]
 Deg. of freedom    24
 Rotational constants (GHZ):     76.6916056      6.8711549      6.8711549
   276 basis functions,   360 primitive gaussians,   310 cartesian basis functions
     5 alpha electrons        5 beta electrons
       nuclear repulsion energy        13.2261669954 Hartrees.
 IMHF & INEx in M05                  614413                  385587
 NAtoms=   10 NActive=   10 NUniq=   10 SFac= 1.00D+00 NAtFMM=   60 NAOKFM=F Big=F
 ExpMin= 2.53D-02 ExpMax= 8.24D+03 ExpMxC= 2.81D+02 IAcc=3 IRadAn=         5 AccDes= 0.00D+00
 Harris functional with IExCor= 1009 and IRadAn=       5 diagonalized for initial guess.
 HarFok:  IExCor= 1009 AccDes= 0.00D+00 IRadAn=         5 IDoV= 1 UseB2=F ITyADJ=14
 ICtDFT=  3500011 ScaDFX=  1.000000  1.000000  1.000000  1.000000
 FoFCou: FMM=F IPFlag=           0 FMFlag=      100000 FMFlg1=           0
         NFxFlg=           0 DoJE=T BraDBF=F KetDBF=T FulRan=T
         wScrn=  0.000000 ICntrl=     500 IOpCl=  0 I1Cent=   200000004 NGrid=           0
         NMat0=    1 NMatS0=      1 NMatT0=    0 NMatD0=    1 NMtDS0=    0 NMtDT0=    0
 Symmetry not used in FoFCou.
 SCF Done:  E(RM05) =  -45.9517802401     A.U. after   10 cycles
            NFock= 10  Conv=0.55D-08     -V/T= 2.0335

 **********************************************************************

            Population analysis using the SCF density.

 **********************************************************************

 Alpha  occ. eigenvalues --  -12.07084  -0.99707  -0.71491  -0.71489  -0.71485
 Alpha virt. eigenvalues --   -0.09135  -0.01911  -0.01903  -0.01895  -0.00748
 Alpha virt. eigenvalues --   -0.00506  -0.00441   0.03082   0.03851   0.04630
 Alpha virt. eigenvalues --    0.05427   0.05760   0.06445   0.07011   0.08274
 Alpha virt. eigenvalues --    0.08813   0.09296   0.11260   0.12253   0.13188
 Alpha virt. eigenvalues --    0.15983   0.17022   0.18588   0.19566   0.20024
 Alpha virt. eigenvalues --    0.20204   0.20801   0.21420   0.22096   0.23285
 Alpha virt. eigenvalues --    0.24387   0.24670   0.25982   0.26138   0.27359
 Alpha virt. eigenvalues --    0.28113   0.28883   0.29685   0.30748   0.31709
 Alpha virt. eigenvalues --    0.33716   0.34420   0.34599   0.37206   0.37603
 Alpha virt. eigenvalues --    0.37939   0.39721   0.40135   0.41765   0.42524
 Alpha virt. eigenvalues --    0.43322   0.44382   0.45514   0.47395   0.47766
 Alpha virt. eigenvalues --    0.49700   0.51057   0.52091   0.52721   0.53853
 Alpha virt. eigenvalues --    0.54596   0.56757   0.57738   0.58687   0.60451
 Alpha virt. eigenvalues --    0.61890   0.62285   0.63912   0.65545   0.66192
 Alpha virt. eigenvalues --    0.68047   0.68183   0.71448   0.72432   0.73192
 Alpha virt. eigenvalues --    0.73979   0.75214   0.77673   0.78908   0.80093
 Alpha virt. eigenvalues --    0.81500   0.83260   0.85972   0.87388   0.89253
 Alpha virt. eigenvalues --    0.89689   0.90090   0.92338   0.93054   0.94312
 Alpha virt. eigenvalues --    0.95289   0.97221   0.97561   1.00406   1.00649
 Alpha virt. eigenvalues --    1.01125   1.02477   1.04542   1.05867   1.07874
 Alpha virt. eigenvalues --    1.09392   1.10386   1.10924   1.14948   1.15506
 Alpha virt. eigenvalues --    1.17079   1.17712   1.20118   1.21360   1.21896
 Alpha virt. eigenvalues --    1.24439   1.25218   1.25506   1.26690   1.29168
 Alpha virt. eigenvalues --    1.29632   1.29936   1.32526   1.33494   1.34275
 Alpha virt. eigenvalues --    1.37384   1.38875   1.39602   1.40944   1.42847
 Alpha virt. eigenvalues --    1.44970   1.47593   1.50019   1.50409   1.50944
 Alpha virt. eigenvalues --    1.53579   1.55651   1.60970   1.62269   1.64725
 Alpha virt. eigenvalues --    1.65520   1.67099   1.70797   1.72617   1.74541
 Alpha virt. eigenvalues --    1.76020   1.78591   1.82906   1.85479   1.86599
 Alpha virt. eigenvalues --    1.88561   1.88950   1.93085   1.96175   1.97245
 Alpha virt. eigenvalues --    1.99022   1.99890   2.03640   2.06212   2.09390
 Alpha virt. eigenvalues --    2.12198   2.18182   2.27859   2.28576   2.35299
 Alpha virt. eigenvalues --    2.39517   2.44759   2.54137   2.56530   2.59193
 Alpha virt. eigenvalues --    2.60339   2.64555   2.68016   2.70180   2.85953
 Alpha virt. eigenvalues --    3.00361   3.04612   3.06518   3.11211   3.12678
 Alpha virt. eigenvalues --    3.15767   3.17603   3.21209   3.23338   3.24624
 Alpha virt. eigenvalues --    3.35229   3.47280   3.48752   3.50736   3.51151
 Alpha virt. eigenvalues --    3.55181   3.57925   3.59501   3.62470   3.68107
 Alpha virt. eigenvalues --    3.78437   3.90005   3.90828   3.92552   3.94055
 Alpha virt. eigenvalues --    3.96650   4.01861   4.03507   4.03849   4.06515
 Alpha virt. eigenvalues --    4.06793   4.08735   4.09965   4.12018   4.15967
 Alpha virt. eigenvalues --    4.18896   4.20260   4.21820   4.26622   4.29050
 Alpha virt. eigenvalues --    4.34000   4.35387   4.36747   4.39720   4.44107
 Alpha virt. eigenvalues --    4.46147   4.49320   4.50804   4.52401   4.56381
 Alpha virt. eigenvalues --    4.57230   4.59236   4.62119   4.68661   4.80532
 Alpha virt. eigenvalues --    4.81160   4.85985   4.86571   4.88494   4.90691
 Alpha virt. eigenvalues --    4.90961   4.97200   5.00246   5.03018   5.04515
 Alpha virt. eigenvalues --    5.09915   5.14859   5.17876   5.20344   5.22565
 Alpha virt. eigenvalues --    5.23890   5.25658   5.27588   5.32334   5.37009
 Alpha virt. eigenvalues --    5.41717   5.46717   5.48687   5.51235   5.62470
 Alpha virt. eigenvalues --    5.67776   5.71175   5.77195   6.07901   6.10132
 Alpha virt. eigenvalues --    6.13785   6.17277   6.19921   6.76982   6.79206
 Alpha virt. eigenvalues --    6.86636   6.94557   7.56890   7.62987   7.66360
 Alpha virt. eigenvalues --    8.02652   8.07178   8.15141  10.37754  15.44213
 Alpha virt. eigenvalues --   53.17199
          Condensed to atoms (all electrons):
 Mulliken charges:
               1
     1  C    0.479162
     2  H    0.026297
     3  H   -0.717446
     4  H    0.074070
     5  H   -0.160914
     6  C    0.104284
     7  H    0.016977
     8  H    0.158050
     9  H   -0.000610
    10  H    0.020132
 Sum of Mulliken charges =  -0.00000
 Mulliken charges with hydrogens summed into heavy atoms:
               1
     1  C   -0.298832
     6  C    0.298832
 Electronic spatial extent (au):  <R**2>=             35.5799
 Charge=             -0.0000 electrons
 Dipole moment (field-independent basis, Debye):
    X=              0.0005    Y=             -0.0012    Z=             -0.0005  Tot=              0.0014

 Test job not archived.
 1\1\GINC-CHIMERA-NODE56\SP\RM05\Gen\C2H8\CONNORNM\08-Dec-2018\0\\#T M0
 5/Gen test Massage SCF=(tight,maxcyc=40)\\M05 opt\\0,1\C,0,0.,0.,0.\H,
 0,0.93834959,0.,0.58778057\H,0,0.1978116,-0.40573946,-1.0110549\H,0,-0
 .75461132,-0.63011021,0.5094201\H,0,-0.38154988,1.03584968,-0.08614577
 \C,0,0.,0.,2.89029228\H,0,0.20659974,0.63410056,3.77415821\H,0,-0.2230
 4509,0.64427609,2.01785594\H,0,0.88631155,-0.62597253,2.66984686\H,0,-
 0.8698662,-0.65240412,3.0993081\\Version=AS64L-G09RevD.01\HF=-45.95178
 02\RMSD=5.483e-09\Dipole=0.0001977,-0.0004657,-0.0001965\Quadrupole=-0
 .0007203,-0.0010702,0.0017905,-0.0003017,0.0001581,-0.0004137\PG=C01 [
 X(C2H8)]\\@


 GETTING A SIMPLE ANSWER FROM A PROFESSOR IS LIKE
 GETTING A THIMBLE OF WATER FROM A FIRE HYDRANT.
     -- PROF. LEN SHAPIRO, NDSU
 Job cpu time:       0 days  0 hours 18 minutes 15.3 seconds.
 File lengths (MBytes):  RWF=     41 Int=      0 D2E=      0 Chk=      4 Scr=      1
 Normal termination of Gaussian 09 at Sat Dec  8 15:17:19 2018.
