 Entering Gaussian System, Link 0=/data/szalewicgrp/connornm/opt/Gaussian/g09-M05-par/g09/g09
 AtFile(1): aug-cc-pVTZ.gbs
 Initial command:
 /data/szalewicgrp/connornm/opt/Gaussian/g09-M05-par/g09/l1.exe "/scratch/local/Gau-21894.inp" -scrdir="/scratch/local/"
 Entering Link 1 = /data/szalewicgrp/connornm/opt/Gaussian/g09-M05-par/g09/l1.exe PID=     21896.
  
 Copyright (c) 1988,1990,1992,1993,1995,1998,2003,2009,2013,
            Gaussian, Inc.  All Rights Reserved.
  
 This is part of the Gaussian(R) 09 program.  It is based on
 the Gaussian(R) 03 system (copyright 2003, Gaussian, Inc.),
 the Gaussian(R) 98 system (copyright 1998, Gaussian, Inc.),
 the Gaussian(R) 94 system (copyright 1995, Gaussian, Inc.),
 the Gaussian 92(TM) system (copyright 1992, Gaussian, Inc.),
 the Gaussian 90(TM) system (copyright 1990, Gaussian, Inc.),
 the Gaussian 88(TM) system (copyright 1988, Gaussian, Inc.),
 the Gaussian 86(TM) system (copyright 1986, Carnegie Mellon
 University), and the Gaussian 82(TM) system (copyright 1983,
 Carnegie Mellon University). Gaussian is a federally registered
 trademark of Gaussian, Inc.
  
 This software contains proprietary and confidential information,
 including trade secrets, belonging to Gaussian, Inc.
  
 This software is provided under written license and may be
 used, copied, transmitted, or stored only in accord with that
 written license.
  
 The following legend is applicable only to US Government
 contracts under FAR:
  
                    RESTRICTED RIGHTS LEGEND
  
 Use, reproduction and disclosure by the US Government is
 subject to restrictions as set forth in subparagraphs (a)
 and (c) of the Commercial Computer Software - Restricted
 Rights clause in FAR 52.227-19.
  
 Gaussian, Inc.
 340 Quinnipiac St., Bldg. 40, Wallingford CT 06492
  
  
 ---------------------------------------------------------------
 Warning -- This program may not be used in any manner that
 competes with the business of Gaussian, Inc. or will provide
 assistance to any competitor of Gaussian, Inc.  The licensee
 of this program is prohibited from giving any competitor of
 Gaussian, Inc. access to this program.  By using this program,
 the user acknowledges that Gaussian, Inc. is engaged in the
 business of creating and licensing software in the field of
 computational chemistry and represents and warrants to the
 licensee that it is not a competitor of Gaussian, Inc. and that
 it will not use this program in any manner prohibited above.
 ---------------------------------------------------------------
  

 Cite this work as:
 Gaussian 09, Revision D.01,
 M. J. Frisch, G. W. Trucks, H. B. Schlegel, G. E. Scuseria, 
 M. A. Robb, J. R. Cheeseman, G. Scalmani, V. Barone, B. Mennucci, 
 G. A. Petersson, H. Nakatsuji, M. Caricato, X. Li, H. P. Hratchian, 
 A. F. Izmaylov, J. Bloino, G. Zheng, J. L. Sonnenberg, M. Hada, 
 M. Ehara, K. Toyota, R. Fukuda, J. Hasegawa, M. Ishida, T. Nakajima, 
 Y. Honda, O. Kitao, H. Nakai, T. Vreven, J. A. Montgomery, Jr., 
 J. E. Peralta, F. Ogliaro, M. Bearpark, J. J. Heyd, E. Brothers, 
 K. N. Kudin, V. N. Staroverov, T. Keith, R. Kobayashi, J. Normand, 
 K. Raghavachari, A. Rendell, J. C. Burant, S. S. Iyengar, J. Tomasi, 
 M. Cossi, N. Rega, J. M. Millam, M. Klene, J. E. Knox, J. B. Cross, 
 V. Bakken, C. Adamo, J. Jaramillo, R. Gomperts, R. E. Stratmann, 
 O. Yazyev, A. J. Austin, R. Cammi, C. Pomelli, J. W. Ochterski, 
 R. L. Martin, K. Morokuma, V. G. Zakrzewski, G. A. Voth, 
 P. Salvador, J. J. Dannenberg, S. Dapprich, A. D. Daniels, 
 O. Farkas, J. B. Foresman, J. V. Ortiz, J. Cioslowski, 
 and D. J. Fox, Gaussian, Inc., Wallingford CT, 2013.
 
 ******************************************
 Gaussian 09:  AS64L-G09RevD.01 24-Apr-2013
                 8-Dec-2018 
 ******************************************
 %Chk=CH400101
 %Mem=2GB
 %NProcShared=16
 Will use up to   16 processors via shared memory.
 ---------------------------------------------
 #T M05/Gen test Massage SCF=(tight,maxcyc=40)
 ---------------------------------------------
 -------
 M05 opt
 -------
 Symbolic Z-matrix:
 Charge =  0 Multiplicity = 1
 6                     0.        0.        0. 
 1                     0.80794   0.        0.75711 
 1                    -0.93944  -0.35957   0.46276 
 1                    -0.14718   1.02852  -0.38271 
 1                     0.27868  -0.66895  -0.83716 
 6-Bq                  0.        0.        2.42053 
 1-Bq                 -0.58599  -0.32566   3.30175 
 1-Bq                 -0.68927   0.34959   1.62763 
 1-Bq                  0.67662   0.82651   2.71216 
 1-Bq                  0.59863  -0.85045   2.04057 
 
                    Distance matrix (angstroms):
                    1          2          3          4          5
     1  C    0.000000
     2  H    1.107242   0.000000
     3  H    1.107242   1.808119   0.000000
     4  H    1.107243   1.808119   1.808119   0.000000
     5  H    1.107243   1.808119   1.808119   1.808119   0.000000
     6  C    2.420528   1.849255   2.201072   2.989591   3.337313
     7  H    3.369124   2.919642   2.861115   3.949885   4.242174
     8  H    1.801803   1.766826   1.386521   2.190041   2.837169
     9  H    2.914914   2.126635   3.013015   3.208992   3.871999
    10  H    2.290318   1.553821   2.257463   3.155796   2.901143
                    6          7          8          9         10
     6  C    0.000000
     7  H    1.107243   0.000000
     8  H    1.107242   1.808119   0.000000
     9  H    1.107242   1.808119   1.808119   0.000000
    10  H    1.107243   1.808119   1.808119   1.808119   0.000000
 Symmetry turned off by external request.
 This structure is nearly, but not quite of a higher symmetry.
 Consider Symm=Loose if the higher symmetry is desired.
 Framework group  C1[X(C2H8)]
 Deg. of freedom    24
 Rotational constants (GHZ):     76.6916056      9.4369688      9.4369688
   276 basis functions,   360 primitive gaussians,   310 cartesian basis functions
     5 alpha electrons        5 beta electrons
       nuclear repulsion energy        13.2261669974 Hartrees.
 IMHF & INEx in M05                  614413                  385587
 NAtoms=   10 NActive=   10 NUniq=   10 SFac= 1.00D+00 NAtFMM=   60 NAOKFM=F Big=F
 ExpMin= 2.53D-02 ExpMax= 8.24D+03 ExpMxC= 2.81D+02 IAcc=3 IRadAn=         5 AccDes= 0.00D+00
 Harris functional with IExCor= 1009 and IRadAn=       5 diagonalized for initial guess.
 HarFok:  IExCor= 1009 AccDes= 0.00D+00 IRadAn=         5 IDoV= 1 UseB2=F ITyADJ=14
 ICtDFT=  3500011 ScaDFX=  1.000000  1.000000  1.000000  1.000000
 FoFCou: FMM=F IPFlag=           0 FMFlag=      100000 FMFlg1=           0
         NFxFlg=           0 DoJE=T BraDBF=F KetDBF=T FulRan=T
         wScrn=  0.000000 ICntrl=     500 IOpCl=  0 I1Cent=   200000004 NGrid=           0
         NMat0=    1 NMatS0=      1 NMatT0=    0 NMatD0=    1 NMtDS0=    0 NMtDT0=    0
 Symmetry not used in FoFCou.
 SCF Done:  E(RM05) =  -45.8818333756     A.U. after   11 cycles
            NFock= 11  Conv=0.17D-08     -V/T= 2.0328

 **********************************************************************

            Population analysis using the SCF density.

 **********************************************************************

 Alpha  occ. eigenvalues --  -12.05235  -0.99455  -0.71187  -0.71171  -0.71149
 Alpha virt. eigenvalues --   -0.08943  -0.01732  -0.01715  -0.01713  -0.00544
 Alpha virt. eigenvalues --   -0.00427  -0.00383   0.03231   0.03952   0.04360
 Alpha virt. eigenvalues --    0.05686   0.06159   0.06355   0.07198   0.07973
 Alpha virt. eigenvalues --    0.08520   0.09480   0.11234   0.12162   0.13941
 Alpha virt. eigenvalues --    0.15790   0.17328   0.18505   0.19757   0.20416
 Alpha virt. eigenvalues --    0.20774   0.21427   0.21930   0.23241   0.23897
 Alpha virt. eigenvalues --    0.24550   0.24841   0.25606   0.26394   0.28184
 Alpha virt. eigenvalues --    0.29490   0.29809   0.30199   0.31207   0.32078
 Alpha virt. eigenvalues --    0.33850   0.34558   0.36442   0.38037   0.38093
 Alpha virt. eigenvalues --    0.39598   0.40223   0.41690   0.42331   0.42890
 Alpha virt. eigenvalues --    0.43723   0.44125   0.46291   0.47030   0.49107
 Alpha virt. eigenvalues --    0.49983   0.51306   0.52019   0.54491   0.55074
 Alpha virt. eigenvalues --    0.56231   0.57019   0.57791   0.59343   0.60716
 Alpha virt. eigenvalues --    0.61422   0.62116   0.62505   0.65121   0.66303
 Alpha virt. eigenvalues --    0.67891   0.70243   0.70999   0.71842   0.76483
 Alpha virt. eigenvalues --    0.77788   0.77883   0.80397   0.80701   0.81809
 Alpha virt. eigenvalues --    0.83333   0.85399   0.86624   0.87509   0.89398
 Alpha virt. eigenvalues --    0.89654   0.90719   0.93756   0.95419   0.96717
 Alpha virt. eigenvalues --    0.97517   0.98451   1.00247   1.00839   1.01511
 Alpha virt. eigenvalues --    1.03711   1.04626   1.05531   1.07174   1.08990
 Alpha virt. eigenvalues --    1.10386   1.11722   1.14757   1.16009   1.17099
 Alpha virt. eigenvalues --    1.19314   1.21976   1.24056   1.24484   1.25663
 Alpha virt. eigenvalues --    1.26997   1.27186   1.28315   1.29256   1.30089
 Alpha virt. eigenvalues --    1.31461   1.32905   1.33179   1.35661   1.38737
 Alpha virt. eigenvalues --    1.39212   1.40703   1.43256   1.44531   1.48102
 Alpha virt. eigenvalues --    1.50183   1.50948   1.54940   1.55437   1.56967
 Alpha virt. eigenvalues --    1.60145   1.62230   1.64416   1.64842   1.68452
 Alpha virt. eigenvalues --    1.70188   1.71440   1.73491   1.74200   1.76892
 Alpha virt. eigenvalues --    1.79043   1.82667   1.83472   1.87448   1.88465
 Alpha virt. eigenvalues --    1.89296   1.91755   1.92750   1.95653   1.99035
 Alpha virt. eigenvalues --    2.01297   2.03025   2.04894   2.09468   2.10722
 Alpha virt. eigenvalues --    2.13675   2.23332   2.26377   2.32757   2.35581
 Alpha virt. eigenvalues --    2.38753   2.44293   2.53845   2.55359   2.57780
 Alpha virt. eigenvalues --    2.60368   2.62974   2.75983   2.77754   2.81086
 Alpha virt. eigenvalues --    3.03879   3.10270   3.12254   3.14218   3.17570
 Alpha virt. eigenvalues --    3.19582   3.21221   3.24760   3.26545   3.29976
 Alpha virt. eigenvalues --    3.43210   3.46105   3.49341   3.51289   3.52579
 Alpha virt. eigenvalues --    3.55270   3.56997   3.61564   3.63349   3.74861
 Alpha virt. eigenvalues --    3.77931   3.80846   3.86527   3.90316   3.92341
 Alpha virt. eigenvalues --    3.95068   4.00413   4.03098   4.05008   4.05905
 Alpha virt. eigenvalues --    4.07180   4.12263   4.12476   4.15657   4.16226
 Alpha virt. eigenvalues --    4.17652   4.23413   4.25319   4.30086   4.30200
 Alpha virt. eigenvalues --    4.35031   4.37693   4.38646   4.43444   4.45820
 Alpha virt. eigenvalues --    4.49498   4.50821   4.52924   4.58061   4.60981
 Alpha virt. eigenvalues --    4.63409   4.67289   4.71602   4.75772   4.78744
 Alpha virt. eigenvalues --    4.80791   4.82139   4.89946   4.93051   4.98424
 Alpha virt. eigenvalues --    5.00105   5.01585   5.08720   5.10843   5.12539
 Alpha virt. eigenvalues --    5.14638   5.17230   5.18002   5.21959   5.27237
 Alpha virt. eigenvalues --    5.30602   5.30755   5.36691   5.42952   5.46588
 Alpha virt. eigenvalues --    5.50246   5.53964   5.57650   5.62517   5.67379
 Alpha virt. eigenvalues --    5.73467   5.76755   5.86448   5.97291   6.04538
 Alpha virt. eigenvalues --    6.10441   6.13681   6.24225   6.72249   6.77087
 Alpha virt. eigenvalues --    6.84251   6.89021   7.41361   7.52905   7.60577
 Alpha virt. eigenvalues --    7.97603   8.03865   8.15155  10.39646  15.91595
 Alpha virt. eigenvalues --   53.79307
          Condensed to atoms (all electrons):
 Mulliken charges:
               1
     1  C    0.287372
     2  H    0.310542
     3  H    0.636658
     4  H   -0.247005
     5  H   -0.687589
     6  C    0.010265
     7  H   -0.028529
     8  H   -0.494907
     9  H   -0.037397
    10  H    0.250590
 Sum of Mulliken charges =  -0.00000
 Mulliken charges with hydrogens summed into heavy atoms:
               1
     1  C    0.299978
     6  C   -0.299978
 Electronic spatial extent (au):  <R**2>=             35.5908
 Charge=              0.0000 electrons
 Dipole moment (field-independent basis, Debye):
    X=             -0.0006    Y=             -0.0015    Z=             -0.0009  Tot=              0.0019

 Test job not archived.
 1\1\GINC-CHIMERA-NODE48\SP\RM05\Gen\C2H8\CONNORNM\08-Dec-2018\0\\#T M0
 5/Gen test Massage SCF=(tight,maxcyc=40)\\M05 opt\\0,1\C,0,0.,0.,0.\H,
 0,0.80794463,0.,0.75710727\H,0,-0.93944247,-0.35957083,0.46275546\H,0,
 -0.1471776,1.02852306,-0.3827075\H,0,0.27867544,-0.66895223,-0.8371552
 3\C,0,0.,0.,2.4205283\H,0,-0.58598691,-0.32565532,3.30175127\H,0,-0.68
 926721,0.34959229,1.62763367\H,0,0.67662361,0.82651088,2.71215513\H,0,
 0.59863051,-0.85044785,2.04057314\\Version=AS64L-G09RevD.01\HF=-45.881
 8334\RMSD=1.712e-09\Dipole=-0.0002199,-0.0005996,-0.0003558\Quadrupole
 =-0.0014734,0.0014321,0.0000413,-0.0000575,-0.0003239,-0.001056\PG=C01
  [X(C2H8)]\\@


 A great many people think they are thinking when they
 are merely rearranging their prejudices.
                               -- William James
 Job cpu time:       0 days  0 hours 20 minutes 42.0 seconds.
 File lengths (MBytes):  RWF=     41 Int=      0 D2E=      0 Chk=      4 Scr=      1
 Normal termination of Gaussian 09 at Sat Dec  8 13:34:58 2018.
