 Entering Gaussian System, Link 0=/data/szalewicgrp/connornm/opt/Gaussian/g09-M05-par/g09/g09
 AtFile(1): aug-cc-pVTZ.gbs
 Initial command:
 /data/szalewicgrp/connornm/opt/Gaussian/g09-M05-par/g09/l1.exe "/scratch/local/Gau-23135.inp" -scrdir="/scratch/local/"
 Entering Link 1 = /data/szalewicgrp/connornm/opt/Gaussian/g09-M05-par/g09/l1.exe PID=     23136.
  
 Copyright (c) 1988,1990,1992,1993,1995,1998,2003,2009,2013,
            Gaussian, Inc.  All Rights Reserved.
  
 This is part of the Gaussian(R) 09 program.  It is based on
 the Gaussian(R) 03 system (copyright 2003, Gaussian, Inc.),
 the Gaussian(R) 98 system (copyright 1998, Gaussian, Inc.),
 the Gaussian(R) 94 system (copyright 1995, Gaussian, Inc.),
 the Gaussian 92(TM) system (copyright 1992, Gaussian, Inc.),
 the Gaussian 90(TM) system (copyright 1990, Gaussian, Inc.),
 the Gaussian 88(TM) system (copyright 1988, Gaussian, Inc.),
 the Gaussian 86(TM) system (copyright 1986, Carnegie Mellon
 University), and the Gaussian 82(TM) system (copyright 1983,
 Carnegie Mellon University). Gaussian is a federally registered
 trademark of Gaussian, Inc.
  
 This software contains proprietary and confidential information,
 including trade secrets, belonging to Gaussian, Inc.
  
 This software is provided under written license and may be
 used, copied, transmitted, or stored only in accord with that
 written license.
  
 The following legend is applicable only to US Government
 contracts under FAR:
  
                    RESTRICTED RIGHTS LEGEND
  
 Use, reproduction and disclosure by the US Government is
 subject to restrictions as set forth in subparagraphs (a)
 and (c) of the Commercial Computer Software - Restricted
 Rights clause in FAR 52.227-19.
  
 Gaussian, Inc.
 340 Quinnipiac St., Bldg. 40, Wallingford CT 06492
  
  
 ---------------------------------------------------------------
 Warning -- This program may not be used in any manner that
 competes with the business of Gaussian, Inc. or will provide
 assistance to any competitor of Gaussian, Inc.  The licensee
 of this program is prohibited from giving any competitor of
 Gaussian, Inc. access to this program.  By using this program,
 the user acknowledges that Gaussian, Inc. is engaged in the
 business of creating and licensing software in the field of
 computational chemistry and represents and warrants to the
 licensee that it is not a competitor of Gaussian, Inc. and that
 it will not use this program in any manner prohibited above.
 ---------------------------------------------------------------
  

 Cite this work as:
 Gaussian 09, Revision D.01,
 M. J. Frisch, G. W. Trucks, H. B. Schlegel, G. E. Scuseria, 
 M. A. Robb, J. R. Cheeseman, G. Scalmani, V. Barone, B. Mennucci, 
 G. A. Petersson, H. Nakatsuji, M. Caricato, X. Li, H. P. Hratchian, 
 A. F. Izmaylov, J. Bloino, G. Zheng, J. L. Sonnenberg, M. Hada, 
 M. Ehara, K. Toyota, R. Fukuda, J. Hasegawa, M. Ishida, T. Nakajima, 
 Y. Honda, O. Kitao, H. Nakai, T. Vreven, J. A. Montgomery, Jr., 
 J. E. Peralta, F. Ogliaro, M. Bearpark, J. J. Heyd, E. Brothers, 
 K. N. Kudin, V. N. Staroverov, T. Keith, R. Kobayashi, J. Normand, 
 K. Raghavachari, A. Rendell, J. C. Burant, S. S. Iyengar, J. Tomasi, 
 M. Cossi, N. Rega, J. M. Millam, M. Klene, J. E. Knox, J. B. Cross, 
 V. Bakken, C. Adamo, J. Jaramillo, R. Gomperts, R. E. Stratmann, 
 O. Yazyev, A. J. Austin, R. Cammi, C. Pomelli, J. W. Ochterski, 
 R. L. Martin, K. Morokuma, V. G. Zakrzewski, G. A. Voth, 
 P. Salvador, J. J. Dannenberg, S. Dapprich, A. D. Daniels, 
 O. Farkas, J. B. Foresman, J. V. Ortiz, J. Cioslowski, 
 and D. J. Fox, Gaussian, Inc., Wallingford CT, 2013.
 
 ******************************************
 Gaussian 09:  AS64L-G09RevD.01 24-Apr-2013
                 8-Dec-2018 
 ******************************************
 %Chk=CH400247
 %Mem=2GB
 %NProcShared=16
 Will use up to   16 processors via shared memory.
 ---------------------------------------------
 #T M05/Gen test Massage SCF=(tight,maxcyc=40)
 ---------------------------------------------
 -------
 M05 opt
 -------
 Symbolic Z-matrix:
 Charge =  0 Multiplicity = 1
 6                     0.        0.        0. 
 1                     0.84816   0.       -0.71177 
 1                     0.38526  -0.09984   1.03324 
 1                    -0.56113   0.94984  -0.09451 
 1                    -0.67229  -0.85     -0.22697 
 6-Bq                  0.        0.        4.91284 
 1-Bq                 -0.63382  -0.49905   5.67127 
 1-Bq                  0.73637  -0.72384   4.51311 
 1-Bq                 -0.63669   0.37279   4.08723 
 1-Bq                  0.53413   0.8501    5.37976 
 
                    Distance matrix (angstroms):
                    1          2          3          4          5
     1  C    0.000000
     2  H    1.107242   0.000000
     3  H    1.107242   1.808119   0.000000
     4  H    1.107243   1.808119   1.808119   0.000000
     5  H    1.107243   1.808119   1.808119   1.808119   0.000000
     6  C    4.912842   5.688198   3.899960   5.127434   5.252822
     7  H    5.728355   6.571791   4.765415   5.945476   5.908795
     8  H    4.629723   5.275960   3.552762   5.070978   4.946574
     9  H    4.153287   5.037273   3.254937   4.222036   4.484283
    10  H    5.472642   6.158572   4.451605   5.583650   5.981742
                    6          7          8          9         10
     6  C    0.000000
     7  H    1.107243   0.000000
     8  H    1.107242   1.808119   0.000000
     9  H    1.107242   1.808119   1.808119   0.000000
    10  H    1.107243   1.808119   1.808119   1.808119   0.000000
 Symmetry turned off by external request.
 This structure is nearly, but not quite of a higher symmetry.
 Consider Symm=Loose if the higher symmetry is desired.
 Framework group  C1[X(C2H8)]
 Deg. of freedom    24
 Rotational constants (GHZ):     76.6916057      2.5261929      2.5261929
   276 basis functions,   360 primitive gaussians,   310 cartesian basis functions
     5 alpha electrons        5 beta electrons
       nuclear repulsion energy        13.2261670173 Hartrees.
 IMHF & INEx in M05                  614413                  385587
 NAtoms=   10 NActive=   10 NUniq=   10 SFac= 1.00D+00 NAtFMM=   60 NAOKFM=F Big=F
 ExpMin= 2.53D-02 ExpMax= 8.24D+03 ExpMxC= 2.81D+02 IAcc=3 IRadAn=         5 AccDes= 0.00D+00
 Harris functional with IExCor= 1009 and IRadAn=       5 diagonalized for initial guess.
 HarFok:  IExCor= 1009 AccDes= 0.00D+00 IRadAn=         5 IDoV= 1 UseB2=F ITyADJ=14
 ICtDFT=  3500011 ScaDFX=  1.000000  1.000000  1.000000  1.000000
 FoFCou: FMM=F IPFlag=           0 FMFlag=      100000 FMFlg1=           0
         NFxFlg=           0 DoJE=T BraDBF=F KetDBF=T FulRan=T
         wScrn=  0.000000 ICntrl=     500 IOpCl=  0 I1Cent=   200000004 NGrid=           0
         NMat0=    1 NMatS0=      1 NMatT0=    0 NMatD0=    1 NMtDS0=    0 NMtDT0=    0
 Symmetry not used in FoFCou.
 SCF Done:  E(RM05) =  -44.2930482513     A.U. after   10 cycles
            NFock= 10  Conv=0.75D-09     -V/T= 2.0247

 **********************************************************************

            Population analysis using the SCF density.

 **********************************************************************

 Alpha  occ. eigenvalues --  -11.62240  -0.92992  -0.62331  -0.62330  -0.62329
 Alpha virt. eigenvalues --   -0.06499  -0.00204  -0.00160  -0.00138   0.02379
 Alpha virt. eigenvalues --    0.02586   0.02835   0.03366   0.04626   0.05165
 Alpha virt. eigenvalues --    0.06246   0.06897   0.07569   0.08165   0.08749
 Alpha virt. eigenvalues --    0.09024   0.10300   0.11490   0.12138   0.12784
 Alpha virt. eigenvalues --    0.13703   0.18541   0.20209   0.20523   0.21046
 Alpha virt. eigenvalues --    0.21221   0.21754   0.22623   0.23077   0.23559
 Alpha virt. eigenvalues --    0.23892   0.25358   0.25699   0.26724   0.26875
 Alpha virt. eigenvalues --    0.27193   0.28270   0.29657   0.29997   0.30598
 Alpha virt. eigenvalues --    0.30695   0.32122   0.32900   0.35184   0.35594
 Alpha virt. eigenvalues --    0.36658   0.37368   0.37809   0.38270   0.39688
 Alpha virt. eigenvalues --    0.42015   0.43028   0.44973   0.46649   0.47100
 Alpha virt. eigenvalues --    0.47954   0.48620   0.51183   0.52480   0.53931
 Alpha virt. eigenvalues --    0.55913   0.56864   0.60035   0.61184   0.62004
 Alpha virt. eigenvalues --    0.64466   0.65777   0.66099   0.67390   0.68472
 Alpha virt. eigenvalues --    0.68979   0.70604   0.74965   0.75411   0.75749
 Alpha virt. eigenvalues --    0.76624   0.77124   0.80958   0.81051   0.81430
 Alpha virt. eigenvalues --    0.82379   0.84312   0.85295   0.87765   0.89021
 Alpha virt. eigenvalues --    0.91902   0.92979   0.93183   0.93429   0.95062
 Alpha virt. eigenvalues --    0.95825   0.96378   0.97490   0.98108   0.98952
 Alpha virt. eigenvalues --    0.99353   1.01387   1.03104   1.03525   1.04178
 Alpha virt. eigenvalues --    1.04846   1.05342   1.07051   1.07119   1.07829
 Alpha virt. eigenvalues --    1.09252   1.10437   1.13775   1.16446   1.18738
 Alpha virt. eigenvalues --    1.19913   1.21929   1.22690   1.23420   1.24375
 Alpha virt. eigenvalues --    1.27147   1.31594   1.32325   1.33500   1.33753
 Alpha virt. eigenvalues --    1.34025   1.34225   1.35022   1.37741   1.38314
 Alpha virt. eigenvalues --    1.39365   1.40214   1.41504   1.42547   1.42941
 Alpha virt. eigenvalues --    1.45403   1.50228   1.53727   1.54089   1.61494
 Alpha virt. eigenvalues --    1.62121   1.62556   1.66215   1.69792   1.70951
 Alpha virt. eigenvalues --    1.71282   1.80780   1.81511   1.82499   1.83378
 Alpha virt. eigenvalues --    1.85384   1.89148   1.92208   1.94736   1.96668
 Alpha virt. eigenvalues --    2.01811   2.02426   2.03015   2.04860   2.05858
 Alpha virt. eigenvalues --    2.10168   2.18862   2.25481   2.27473   2.29292
 Alpha virt. eigenvalues --    2.43588   2.46335   2.47834   2.60524   2.61149
 Alpha virt. eigenvalues --    2.62672   2.68099   2.68580   2.69354   2.80288
 Alpha virt. eigenvalues --    3.04309   3.04433   3.08826   3.09342   3.09417
 Alpha virt. eigenvalues --    3.09817   3.10875   3.12410   3.34989   3.35586
 Alpha virt. eigenvalues --    3.37292   3.53341   3.53732   3.56300   3.56765
 Alpha virt. eigenvalues --    3.58159   3.58532   3.61539   3.65730   3.66074
 Alpha virt. eigenvalues --    3.66789   3.99005   3.99337   3.99953   4.00414
 Alpha virt. eigenvalues --    4.01144   4.01705   4.03045   4.04041   4.06716
 Alpha virt. eigenvalues --    4.11736   4.12416   4.15039   4.15397   4.16355
 Alpha virt. eigenvalues --    4.17105   4.24469   4.29531   4.29707   4.30094
 Alpha virt. eigenvalues --    4.36048   4.36678   4.37442   4.41651   4.43333
 Alpha virt. eigenvalues --    4.44519   4.44807   4.52371   4.56909   4.58319
 Alpha virt. eigenvalues --    4.58589   4.58810   4.60405   4.60677   4.62207
 Alpha virt. eigenvalues --    4.75744   4.92012   4.92174   4.93329   4.96877
 Alpha virt. eigenvalues --    4.98709   4.99248   4.99803   5.13296   5.13419
 Alpha virt. eigenvalues --    5.15652   5.16105   5.16750   5.29460   5.29833
 Alpha virt. eigenvalues --    5.29879   5.30233   5.30760   5.32962   5.40864
 Alpha virt. eigenvalues --    5.44011   5.47904   5.48098   5.48612   5.51200
 Alpha virt. eigenvalues --    5.75946   5.76968   5.79745   6.14225   6.14616
 Alpha virt. eigenvalues --    6.15007   6.24799   6.24825   6.80363   6.81358
 Alpha virt. eigenvalues --    6.82481   6.96139   7.66107   7.66571   7.66745
 Alpha virt. eigenvalues --    8.02854   8.03756   8.05101  10.26935  15.49241
 Alpha virt. eigenvalues --   52.07261
          Condensed to atoms (all electrons):
 Mulliken charges:
               1
     1  C   -0.771614
     2  H    0.071894
     3  H    0.482874
     4  H    0.100942
     5  H    0.112133
     6  C    0.002906
     7  H    0.000791
     8  H   -0.000338
     9  H    0.000813
    10  H   -0.000402
 Sum of Mulliken charges =  -0.00000
 Mulliken charges with hydrogens summed into heavy atoms:
               1
     1  C   -0.003770
     6  C    0.003770
 Electronic spatial extent (au):  <R**2>=             36.3391
 Charge=             -0.0000 electrons
 Dipole moment (field-independent basis, Debye):
    X=              0.0002    Y=              0.0000    Z=             -0.0004  Tot=              0.0005

 Test job not archived.
 1\1\GINC-CHIMERA-NODE51\SP\RM05\Gen\C2H8\CONNORNM\08-Dec-2018\0\\#T M0
 5/Gen test Massage SCF=(tight,maxcyc=40)\\M05 opt\\0,1\C,0,0.,0.,0.\H,
 0,0.8481592,0.,-0.71176676\H,0,0.38526425,-0.0998404,1.03324213\H,0,-0
 .56113002,0.94983569,-0.09450512\H,0,-0.67229344,-0.84999529,-0.226970
 25\C,0,0.,0.,4.91284156\H,0,-0.63381774,-0.49904988,5.67126773\H,0,0.7
 3637469,-0.72384434,4.5131071\H,0,-0.6366913,0.37279319,4.08722944\H,0
 ,0.53413436,0.85010103,5.37976198\\Version=AS64L-G09RevD.01\HF=-44.293
 0483\RMSD=7.512e-10\Dipole=0.0000868,0.0000019,-0.0001637\Quadrupole=0
 .001301,-0.0006115,-0.0006895,-0.0004103,-0.0000143,0.0000935\PG=C01 [
 X(C2H8)]\\@


 MARY HAD A LITTLE LAMB
      HIS FEET WERE BLACK AS SOOT,
           AND EVERYWHERE THAT MARY WENT
                HIS SOOTY FOOT HE PUT.

                    -- NONAME
 Job cpu time:       0 days  0 hours 13 minutes 41.8 seconds.
 File lengths (MBytes):  RWF=     41 Int=      0 D2E=      0 Chk=      4 Scr=      1
 Normal termination of Gaussian 09 at Sat Dec  8 13:11:59 2018.
