 Entering Gaussian System, Link 0=/data/szalewicgrp/connornm/opt/Gaussian/g09-M05-par/g09/g09
 AtFile(1): aug-cc-pVTZ.gbs
 Initial command:
 /data/szalewicgrp/connornm/opt/Gaussian/g09-M05-par/g09/l1.exe "/scratch/local/Gau-28628.inp" -scrdir="/scratch/local/"
 Entering Link 1 = /data/szalewicgrp/connornm/opt/Gaussian/g09-M05-par/g09/l1.exe PID=     28629.
  
 Copyright (c) 1988,1990,1992,1993,1995,1998,2003,2009,2013,
            Gaussian, Inc.  All Rights Reserved.
  
 This is part of the Gaussian(R) 09 program.  It is based on
 the Gaussian(R) 03 system (copyright 2003, Gaussian, Inc.),
 the Gaussian(R) 98 system (copyright 1998, Gaussian, Inc.),
 the Gaussian(R) 94 system (copyright 1995, Gaussian, Inc.),
 the Gaussian 92(TM) system (copyright 1992, Gaussian, Inc.),
 the Gaussian 90(TM) system (copyright 1990, Gaussian, Inc.),
 the Gaussian 88(TM) system (copyright 1988, Gaussian, Inc.),
 the Gaussian 86(TM) system (copyright 1986, Carnegie Mellon
 University), and the Gaussian 82(TM) system (copyright 1983,
 Carnegie Mellon University). Gaussian is a federally registered
 trademark of Gaussian, Inc.
  
 This software contains proprietary and confidential information,
 including trade secrets, belonging to Gaussian, Inc.
  
 This software is provided under written license and may be
 used, copied, transmitted, or stored only in accord with that
 written license.
  
 The following legend is applicable only to US Government
 contracts under FAR:
  
                    RESTRICTED RIGHTS LEGEND
  
 Use, reproduction and disclosure by the US Government is
 subject to restrictions as set forth in subparagraphs (a)
 and (c) of the Commercial Computer Software - Restricted
 Rights clause in FAR 52.227-19.
  
 Gaussian, Inc.
 340 Quinnipiac St., Bldg. 40, Wallingford CT 06492
  
  
 ---------------------------------------------------------------
 Warning -- This program may not be used in any manner that
 competes with the business of Gaussian, Inc. or will provide
 assistance to any competitor of Gaussian, Inc.  The licensee
 of this program is prohibited from giving any competitor of
 Gaussian, Inc. access to this program.  By using this program,
 the user acknowledges that Gaussian, Inc. is engaged in the
 business of creating and licensing software in the field of
 computational chemistry and represents and warrants to the
 licensee that it is not a competitor of Gaussian, Inc. and that
 it will not use this program in any manner prohibited above.
 ---------------------------------------------------------------
  

 Cite this work as:
 Gaussian 09, Revision D.01,
 M. J. Frisch, G. W. Trucks, H. B. Schlegel, G. E. Scuseria, 
 M. A. Robb, J. R. Cheeseman, G. Scalmani, V. Barone, B. Mennucci, 
 G. A. Petersson, H. Nakatsuji, M. Caricato, X. Li, H. P. Hratchian, 
 A. F. Izmaylov, J. Bloino, G. Zheng, J. L. Sonnenberg, M. Hada, 
 M. Ehara, K. Toyota, R. Fukuda, J. Hasegawa, M. Ishida, T. Nakajima, 
 Y. Honda, O. Kitao, H. Nakai, T. Vreven, J. A. Montgomery, Jr., 
 J. E. Peralta, F. Ogliaro, M. Bearpark, J. J. Heyd, E. Brothers, 
 K. N. Kudin, V. N. Staroverov, T. Keith, R. Kobayashi, J. Normand, 
 K. Raghavachari, A. Rendell, J. C. Burant, S. S. Iyengar, J. Tomasi, 
 M. Cossi, N. Rega, J. M. Millam, M. Klene, J. E. Knox, J. B. Cross, 
 V. Bakken, C. Adamo, J. Jaramillo, R. Gomperts, R. E. Stratmann, 
 O. Yazyev, A. J. Austin, R. Cammi, C. Pomelli, J. W. Ochterski, 
 R. L. Martin, K. Morokuma, V. G. Zakrzewski, G. A. Voth, 
 P. Salvador, J. J. Dannenberg, S. Dapprich, A. D. Daniels, 
 O. Farkas, J. B. Foresman, J. V. Ortiz, J. Cioslowski, 
 and D. J. Fox, Gaussian, Inc., Wallingford CT, 2013.
 
 ******************************************
 Gaussian 09:  AS64L-G09RevD.01 24-Apr-2013
                 8-Dec-2018 
 ******************************************
 %Chk=CH400003
 %Mem=2GB
 %NProcShared=16
 Will use up to   16 processors via shared memory.
 ---------------------------------------------
 #T M05/Gen test Massage SCF=(tight,maxcyc=40)
 ---------------------------------------------
 -------
 M05 opt
 -------
 Symbolic Z-matrix:
 Charge =  0 Multiplicity = 1
 6                     0.        0.        0. 
 1                     0.39835   0.        1.03311 
 1                     0.21648   0.9745   -0.47904 
 1                     0.48002  -0.81142  -0.58065 
 1                    -1.09484  -0.16308   0.02659 
 6-Bq                  0.        0.        4.93095 
 1-Bq                  0.94983  -0.48155   4.62776 
 1-Bq                 -0.0897    0.98504   4.43332 
 1-Bq                 -0.85109  -0.64271   4.63336 
 1-Bq                 -0.00904   0.13922   6.02937 
 
                    Distance matrix (angstroms):
                    1          2          3          4          5
     1  C    0.000000
     2  H    1.107243   0.000000
     3  H    1.107242   1.808119   0.000000
     4  H    1.107243   1.808119   1.808119   0.000000
     5  H    1.107243   1.808119   1.808119   1.808119   0.000000
     6  C    4.930953   3.918150   5.501318   5.591658   5.027733
     7  H    4.748704   3.668452   5.360710   5.239950   5.045085
     8  H    4.542322   3.573509   4.921902   5.356474   4.663456
     9  H    4.754521   3.864714   5.467328   5.383892   4.638088
    10  H    6.030985   5.014780   6.565662   6.695919   6.107683
                    6          7          8          9         10
     6  C    0.000000
     7  H    1.107243   0.000000
     8  H    1.107243   1.808119   0.000000
     9  H    1.107242   1.808119   1.808119   0.000000
    10  H    1.107242   1.808119   1.808119   1.808119   0.000000
 Symmetry turned off by external request.
 This structure is nearly, but not quite of a higher symmetry.
 Consider Symm=Loose if the higher symmetry is desired.
 Framework group  C1[X(C2H8)]
 Deg. of freedom    24
 Rotational constants (GHZ):     76.6916055      2.5082752      2.5082752
   276 basis functions,   360 primitive gaussians,   310 cartesian basis functions
     5 alpha electrons        5 beta electrons
       nuclear repulsion energy        13.2261669843 Hartrees.
 IMHF & INEx in M05                  614413                  385587
 NAtoms=   10 NActive=   10 NUniq=   10 SFac= 1.00D+00 NAtFMM=   60 NAOKFM=F Big=F
 ExpMin= 2.53D-02 ExpMax= 8.24D+03 ExpMxC= 2.81D+02 IAcc=3 IRadAn=         5 AccDes= 0.00D+00
 Harris functional with IExCor= 1009 and IRadAn=       5 diagonalized for initial guess.
 HarFok:  IExCor= 1009 AccDes= 0.00D+00 IRadAn=         5 IDoV= 1 UseB2=F ITyADJ=14
 ICtDFT=  3500011 ScaDFX=  1.000000  1.000000  1.000000  1.000000
 FoFCou: FMM=F IPFlag=           0 FMFlag=      100000 FMFlg1=           0
         NFxFlg=           0 DoJE=T BraDBF=F KetDBF=T FulRan=T
         wScrn=  0.000000 ICntrl=     500 IOpCl=  0 I1Cent=   200000004 NGrid=           0
         NMat0=    1 NMatS0=      1 NMatT0=    0 NMatD0=    1 NMtDS0=    0 NMtDT0=    0
 Symmetry not used in FoFCou.
 SCF Done:  E(RM05) =  -45.9507708490     A.U. after   10 cycles
            NFock= 10  Conv=0.38D-08     -V/T= 2.0338

 **********************************************************************

            Population analysis using the SCF density.

 **********************************************************************

 Alpha  occ. eigenvalues --  -12.07068  -0.99692  -0.71480  -0.71478  -0.71477
 Alpha virt. eigenvalues --   -0.09148  -0.01919  -0.01905  -0.01902  -0.00541
 Alpha virt. eigenvalues --   -0.00488  -0.00451   0.02754   0.03958   0.04454
 Alpha virt. eigenvalues --    0.05048   0.06108   0.06361   0.06933   0.07259
 Alpha virt. eigenvalues --    0.07463   0.10095   0.10521   0.11399   0.11669
 Alpha virt. eigenvalues --    0.14454   0.16792   0.19227   0.19340   0.20201
 Alpha virt. eigenvalues --    0.20287   0.20880   0.21295   0.21737   0.22982
 Alpha virt. eigenvalues --    0.23736   0.24274   0.24732   0.25000   0.25687
 Alpha virt. eigenvalues --    0.26495   0.27164   0.27510   0.28038   0.28469
 Alpha virt. eigenvalues --    0.30549   0.30673   0.31035   0.34481   0.34871
 Alpha virt. eigenvalues --    0.35408   0.35958   0.38056   0.38717   0.39102
 Alpha virt. eigenvalues --    0.39308   0.40838   0.42876   0.44169   0.45747
 Alpha virt. eigenvalues --    0.46776   0.48512   0.48721   0.49011   0.53347
 Alpha virt. eigenvalues --    0.55484   0.56012   0.56845   0.57447   0.58588
 Alpha virt. eigenvalues --    0.59755   0.63001   0.63764   0.65572   0.66165
 Alpha virt. eigenvalues --    0.66625   0.67629   0.70174   0.70281   0.70721
 Alpha virt. eigenvalues --    0.71565   0.73555   0.76501   0.76891   0.77023
 Alpha virt. eigenvalues --    0.78625   0.78867   0.80913   0.86743   0.87214
 Alpha virt. eigenvalues --    0.89263   0.89847   0.90227   0.91699   0.93751
 Alpha virt. eigenvalues --    0.94066   0.94772   0.95265   0.95971   0.96937
 Alpha virt. eigenvalues --    0.98244   1.00138   1.01199   1.03530   1.04120
 Alpha virt. eigenvalues --    1.05032   1.05589   1.06305   1.07530   1.08070
 Alpha virt. eigenvalues --    1.09396   1.10347   1.11577   1.13081   1.15373
 Alpha virt. eigenvalues --    1.17363   1.20173   1.22159   1.22904   1.23650
 Alpha virt. eigenvalues --    1.23845   1.25395   1.25718   1.26798   1.27304
 Alpha virt. eigenvalues --    1.28100   1.30546   1.31151   1.33647   1.34659
 Alpha virt. eigenvalues --    1.36043   1.37838   1.38198   1.38861   1.39765
 Alpha virt. eigenvalues --    1.41347   1.46458   1.46752   1.47919   1.52315
 Alpha virt. eigenvalues --    1.54523   1.57315   1.59086   1.69631   1.69900
 Alpha virt. eigenvalues --    1.70093   1.72798   1.73602   1.74820   1.83687
 Alpha virt. eigenvalues --    1.84484   1.85114   1.88368   1.89840   1.94074
 Alpha virt. eigenvalues --    2.01666   2.01831   2.04435   2.05848   2.06009
 Alpha virt. eigenvalues --    2.07261   2.09020   2.25449   2.27147   2.29032
 Alpha virt. eigenvalues --    2.32122   2.44090   2.44970   2.46595   2.46796
 Alpha virt. eigenvalues --    2.48262   2.68231   2.68504   2.70872   2.83092
 Alpha virt. eigenvalues --    2.96195   2.97222   2.97919   2.98961   2.99104
 Alpha virt. eigenvalues --    3.03687   3.04027   3.06409   3.21288   3.21553
 Alpha virt. eigenvalues --    3.23967   3.43570   3.43842   3.45759   3.46198
 Alpha virt. eigenvalues --    3.46572   3.47870   3.48584   3.54084   3.54490
 Alpha virt. eigenvalues --    3.66824   3.88713   3.89306   3.89466   3.99435
 Alpha virt. eigenvalues --    3.99531   4.00568   4.01649   4.02019   4.02832
 Alpha virt. eigenvalues --    4.03146   4.03261   4.03547   4.03925   4.04663
 Alpha virt. eigenvalues --    4.16121   4.16847   4.17076   4.17389   4.17766
 Alpha virt. eigenvalues --    4.25578   4.36103   4.36538   4.36922   4.43265
 Alpha virt. eigenvalues --    4.44153   4.46016   4.46368   4.46789   4.48629
 Alpha virt. eigenvalues --    4.52911   4.54280   4.60063   4.60387   4.62850
 Alpha virt. eigenvalues --    4.75707   4.80499   4.88229   4.88772   4.89225
 Alpha virt. eigenvalues --    4.92263   4.92444   4.95120   5.01919   5.02133
 Alpha virt. eigenvalues --    5.14126   5.14633   5.15458   5.16281   5.16529
 Alpha virt. eigenvalues --    5.16887   5.30078   5.30383   5.30912   5.41755
 Alpha virt. eigenvalues --    5.42084   5.48092   5.48241   5.49257   5.53654
 Alpha virt. eigenvalues --    5.59877   5.60437   5.63631   6.14136   6.14959
 Alpha virt. eigenvalues --    6.15434   6.25127   6.25168   6.80659   6.81196
 Alpha virt. eigenvalues --    6.82597   6.96843   7.66422   7.66497   7.68772
 Alpha virt. eigenvalues --    8.04282   8.04500   8.08626  10.27325  14.91770
 Alpha virt. eigenvalues --   52.22439
          Condensed to atoms (all electrons):
 Mulliken charges:
               1
     1  C    0.306023
     2  H    0.371760
     3  H   -0.253188
     4  H   -0.245724
     5  H   -0.180818
     6  C    0.003796
     7  H   -0.001468
     8  H   -0.000451
     9  H   -0.000392
    10  H    0.000462
 Sum of Mulliken charges =   0.00000
 Mulliken charges with hydrogens summed into heavy atoms:
               1
     1  C   -0.001948
     6  C    0.001948
 Electronic spatial extent (au):  <R**2>=             35.5794
 Charge=              0.0000 electrons
 Dipole moment (field-independent basis, Debye):
    X=              0.0003    Y=              0.0001    Z=             -0.0005  Tot=              0.0005

 Test job not archived.
 1\1\GINC-CHIMERA-NODE50\SP\RM05\Gen\C2H8\CONNORNM\08-Dec-2018\0\\#T M0
 5/Gen test Massage SCF=(tight,maxcyc=40)\\M05 opt\\0,1\C,0,0.,0.,0.\H,
 0,0.3983464,0.,1.03310508\H,0,0.21647652,0.97449899,-0.4790361\H,0,0.4
 8002184,-0.81142191,-0.58065435\H,0,-1.09484476,-0.16307708,0.02658537
 \C,0,0.,0.,4.9309532\H,0,0.94982542,-0.48154919,4.62775688\H,0,-0.0896
 9738,0.9850398,4.43332188\H,0,-0.85108888,-0.64270791,4.63336252\H,0,-
 0.00903916,0.1392173,6.02937151\\Version=AS64L-G09RevD.01\HF=-45.95077
 08\RMSD=3.812e-09\Dipole=0.000101,0.0000269,-0.0001799\Quadrupole=-0.0
 003908,0.0002674,0.0001235,-0.0003241,-0.0000065,-0.0000622\PG=C01 [X(
 C2H8)]\\@


 NATURE WILL TELL YOU A DIRECT LIE IF SHE CAN.

                                -- CHARLES DARWIN
 Job cpu time:       0 days  0 hours 13 minutes 40.0 seconds.
 File lengths (MBytes):  RWF=     41 Int=      0 D2E=      0 Chk=      4 Scr=      1
 Normal termination of Gaussian 09 at Sat Dec  8 15:15:02 2018.
