 Entering Gaussian System, Link 0=/data/szalewicgrp/connornm/opt/Gaussian/g09-M05-par/g09/g09
 AtFile(1): aug-cc-pVTZ.gbs
 Initial command:
 /data/szalewicgrp/connornm/opt/Gaussian/g09-M05-par/g09/l1.exe "/scratch/local/Gau-37399.inp" -scrdir="/scratch/local/"
 Entering Link 1 = /data/szalewicgrp/connornm/opt/Gaussian/g09-M05-par/g09/l1.exe PID=     37400.
  
 Copyright (c) 1988,1990,1992,1993,1995,1998,2003,2009,2013,
            Gaussian, Inc.  All Rights Reserved.
  
 This is part of the Gaussian(R) 09 program.  It is based on
 the Gaussian(R) 03 system (copyright 2003, Gaussian, Inc.),
 the Gaussian(R) 98 system (copyright 1998, Gaussian, Inc.),
 the Gaussian(R) 94 system (copyright 1995, Gaussian, Inc.),
 the Gaussian 92(TM) system (copyright 1992, Gaussian, Inc.),
 the Gaussian 90(TM) system (copyright 1990, Gaussian, Inc.),
 the Gaussian 88(TM) system (copyright 1988, Gaussian, Inc.),
 the Gaussian 86(TM) system (copyright 1986, Carnegie Mellon
 University), and the Gaussian 82(TM) system (copyright 1983,
 Carnegie Mellon University). Gaussian is a federally registered
 trademark of Gaussian, Inc.
  
 This software contains proprietary and confidential information,
 including trade secrets, belonging to Gaussian, Inc.
  
 This software is provided under written license and may be
 used, copied, transmitted, or stored only in accord with that
 written license.
  
 The following legend is applicable only to US Government
 contracts under FAR:
  
                    RESTRICTED RIGHTS LEGEND
  
 Use, reproduction and disclosure by the US Government is
 subject to restrictions as set forth in subparagraphs (a)
 and (c) of the Commercial Computer Software - Restricted
 Rights clause in FAR 52.227-19.
  
 Gaussian, Inc.
 340 Quinnipiac St., Bldg. 40, Wallingford CT 06492
  
  
 ---------------------------------------------------------------
 Warning -- This program may not be used in any manner that
 competes with the business of Gaussian, Inc. or will provide
 assistance to any competitor of Gaussian, Inc.  The licensee
 of this program is prohibited from giving any competitor of
 Gaussian, Inc. access to this program.  By using this program,
 the user acknowledges that Gaussian, Inc. is engaged in the
 business of creating and licensing software in the field of
 computational chemistry and represents and warrants to the
 licensee that it is not a competitor of Gaussian, Inc. and that
 it will not use this program in any manner prohibited above.
 ---------------------------------------------------------------
  

 Cite this work as:
 Gaussian 09, Revision D.01,
 M. J. Frisch, G. W. Trucks, H. B. Schlegel, G. E. Scuseria, 
 M. A. Robb, J. R. Cheeseman, G. Scalmani, V. Barone, B. Mennucci, 
 G. A. Petersson, H. Nakatsuji, M. Caricato, X. Li, H. P. Hratchian, 
 A. F. Izmaylov, J. Bloino, G. Zheng, J. L. Sonnenberg, M. Hada, 
 M. Ehara, K. Toyota, R. Fukuda, J. Hasegawa, M. Ishida, T. Nakajima, 
 Y. Honda, O. Kitao, H. Nakai, T. Vreven, J. A. Montgomery, Jr., 
 J. E. Peralta, F. Ogliaro, M. Bearpark, J. J. Heyd, E. Brothers, 
 K. N. Kudin, V. N. Staroverov, T. Keith, R. Kobayashi, J. Normand, 
 K. Raghavachari, A. Rendell, J. C. Burant, S. S. Iyengar, J. Tomasi, 
 M. Cossi, N. Rega, J. M. Millam, M. Klene, J. E. Knox, J. B. Cross, 
 V. Bakken, C. Adamo, J. Jaramillo, R. Gomperts, R. E. Stratmann, 
 O. Yazyev, A. J. Austin, R. Cammi, C. Pomelli, J. W. Ochterski, 
 R. L. Martin, K. Morokuma, V. G. Zakrzewski, G. A. Voth, 
 P. Salvador, J. J. Dannenberg, S. Dapprich, A. D. Daniels, 
 O. Farkas, J. B. Foresman, J. V. Ortiz, J. Cioslowski, 
 and D. J. Fox, Gaussian, Inc., Wallingford CT, 2013.
 
 ******************************************
 Gaussian 09:  AS64L-G09RevD.01 24-Apr-2013
                 8-Dec-2018 
 ******************************************
 %Chk=CH400009
 %Mem=2GB
 %NProcShared=16
 Will use up to   16 processors via shared memory.
 ---------------------------------------------
 #T M05/Gen test Massage SCF=(tight,maxcyc=40)
 ---------------------------------------------
 -------
 M05 opt
 -------
 Symbolic Z-matrix:
 Charge =  0 Multiplicity = 1
 6                     0.        0.        0. 
 1                     0.91673   0.        0.62097 
 1                    -0.62161  -0.87876   0.25957 
 1                    -0.57436   0.9274    0.18981 
 1                     0.27924  -0.04864  -1.07035 
 6-Bq                  0.        0.        3.26714 
 1-Bq                  1.00164   0.43797   3.09141 
 1-Bq                 -0.41127   0.38928   4.21862 
 1-Bq                 -0.67462   0.27526   2.43342 
 1-Bq                  0.08425  -1.10251   3.32513 
 
                    Distance matrix (angstroms):
                    1          2          3          4          5
     1  C    0.000000
     2  H    1.107242   0.000000
     3  H    1.107243   1.808119   0.000000
     4  H    1.107243   1.808119   1.808119   0.000000
     5  H    1.107243   1.808119   1.808119   1.808119   0.000000
     6  C    3.267143   2.800471   3.194390   3.264952   4.346742
     7  H    3.279012   2.510402   3.519666   3.338051   4.251927
     8  H    4.256456   3.854635   4.162480   4.067853   5.351798
     9  H    2.540158   2.427578   2.461746   2.338608   3.645701
    10  H    3.504155   3.036614   3.153723   3.792689   4.524253
                    6          7          8          9         10
     6  C    0.000000
     7  H    1.107243   0.000000
     8  H    1.107242   1.808119   0.000000
     9  H    1.107243   1.808119   1.808119   0.000000
    10  H    1.107243   1.808119   1.808119   1.808119   0.000000
 Symmetry turned off by external request.
 This structure is nearly, but not quite of a higher symmetry.
 Consider Symm=Loose if the higher symmetry is desired.
 Framework group  C1[X(C2H8)]
 Deg. of freedom    24
 Rotational constants (GHZ):     76.6916054      5.4842722      5.4842722
   276 basis functions,   360 primitive gaussians,   310 cartesian basis functions
     5 alpha electrons        5 beta electrons
       nuclear repulsion energy        13.2261670047 Hartrees.
 IMHF & INEx in M05                  614413                  385587
 NAtoms=   10 NActive=   10 NUniq=   10 SFac= 1.00D+00 NAtFMM=   60 NAOKFM=F Big=F
 ExpMin= 2.53D-02 ExpMax= 8.24D+03 ExpMxC= 2.81D+02 IAcc=3 IRadAn=         5 AccDes= 0.00D+00
 Harris functional with IExCor= 1009 and IRadAn=       5 diagonalized for initial guess.
 HarFok:  IExCor= 1009 AccDes= 0.00D+00 IRadAn=         5 IDoV= 1 UseB2=F ITyADJ=14
 ICtDFT=  3500011 ScaDFX=  1.000000  1.000000  1.000000  1.000000
 FoFCou: FMM=F IPFlag=           0 FMFlag=      100000 FMFlg1=           0
         NFxFlg=           0 DoJE=T BraDBF=F KetDBF=T FulRan=T
         wScrn=  0.000000 ICntrl=     500 IOpCl=  0 I1Cent=   200000004 NGrid=           0
         NMat0=    1 NMatS0=      1 NMatT0=    0 NMatD0=    1 NMtDS0=    0 NMtDT0=    0
 Symmetry not used in FoFCou.
 SCF Done:  E(RM05) =  -45.9514712228     A.U. after   10 cycles
            NFock= 10  Conv=0.65D-08     -V/T= 2.0336

 **********************************************************************

            Population analysis using the SCF density.

 **********************************************************************

 Alpha  occ. eigenvalues --  -12.07084  -0.99701  -0.71486  -0.71484  -0.71483
 Alpha virt. eigenvalues --   -0.09140  -0.01910  -0.01907  -0.01901  -0.00742
 Alpha virt. eigenvalues --   -0.00461  -0.00429   0.03158   0.03721   0.04005
 Alpha virt. eigenvalues --    0.05301   0.06155   0.06296   0.07015   0.08247
 Alpha virt. eigenvalues --    0.08891   0.09534   0.10949   0.11852   0.12524
 Alpha virt. eigenvalues --    0.15845   0.17674   0.18283   0.19001   0.19602
 Alpha virt. eigenvalues --    0.19918   0.20843   0.21237   0.21705   0.22795
 Alpha virt. eigenvalues --    0.24530   0.24682   0.25622   0.26385   0.27068
 Alpha virt. eigenvalues --    0.27642   0.28091   0.29682   0.30098   0.31075
 Alpha virt. eigenvalues --    0.33059   0.34571   0.34848   0.35170   0.35835
 Alpha virt. eigenvalues --    0.37169   0.39006   0.39701   0.40787   0.42117
 Alpha virt. eigenvalues --    0.42671   0.43089   0.45410   0.45828   0.47141
 Alpha virt. eigenvalues --    0.48658   0.49992   0.52357   0.53244   0.54659
 Alpha virt. eigenvalues --    0.55163   0.56862   0.57085   0.57964   0.60942
 Alpha virt. eigenvalues --    0.62233   0.63029   0.63847   0.64717   0.65760
 Alpha virt. eigenvalues --    0.67530   0.68021   0.70205   0.71061   0.73350
 Alpha virt. eigenvalues --    0.73475   0.75838   0.76810   0.77500   0.78433
 Alpha virt. eigenvalues --    0.80409   0.80966   0.84172   0.87133   0.87260
 Alpha virt. eigenvalues --    0.89079   0.91137   0.91439   0.93032   0.93339
 Alpha virt. eigenvalues --    0.94362   0.96405   0.99027   0.99235   0.99868
 Alpha virt. eigenvalues --    1.01238   1.02065   1.02506   1.03641   1.06356
 Alpha virt. eigenvalues --    1.07816   1.08792   1.11502   1.12656   1.14380
 Alpha virt. eigenvalues --    1.15177   1.16905   1.17983   1.20219   1.22030
 Alpha virt. eigenvalues --    1.23317   1.24702   1.25508   1.25981   1.26982
 Alpha virt. eigenvalues --    1.28107   1.29037   1.29511   1.31560   1.32036
 Alpha virt. eigenvalues --    1.33250   1.36196   1.37920   1.39388   1.43432
 Alpha virt. eigenvalues --    1.44682   1.44934   1.46392   1.47481   1.48114
 Alpha virt. eigenvalues --    1.50365   1.51309   1.53563   1.59033   1.60928
 Alpha virt. eigenvalues --    1.61780   1.67541   1.69052   1.70057   1.72308
 Alpha virt. eigenvalues --    1.75768   1.77584   1.78446   1.82579   1.85694
 Alpha virt. eigenvalues --    1.87916   1.88295   1.91384   1.93605   1.98737
 Alpha virt. eigenvalues --    1.99183   2.00053   2.04853   2.06015   2.07840
 Alpha virt. eigenvalues --    2.11284   2.17428   2.27108   2.28261   2.35468
 Alpha virt. eigenvalues --    2.42052   2.46389   2.50868   2.51535   2.57176
 Alpha virt. eigenvalues --    2.61023   2.66300   2.68879   2.69812   2.83157
 Alpha virt. eigenvalues --    2.99202   2.99897   3.04042   3.04974   3.08996
 Alpha virt. eigenvalues --    3.12569   3.13709   3.15820   3.22109   3.23610
 Alpha virt. eigenvalues --    3.32702   3.45630   3.46855   3.48595   3.48961
 Alpha virt. eigenvalues --    3.53901   3.56003   3.57234   3.58709   3.60797
 Alpha virt. eigenvalues --    3.75667   3.91290   3.91971   3.92159   3.96543
 Alpha virt. eigenvalues --    3.99074   4.00727   4.02943   4.03380   4.04540
 Alpha virt. eigenvalues --    4.05504   4.07556   4.08441   4.11227   4.14445
 Alpha virt. eigenvalues --    4.17620   4.19862   4.22209   4.25581   4.30926
 Alpha virt. eigenvalues --    4.33521   4.36200   4.37316   4.39719   4.43861
 Alpha virt. eigenvalues --    4.45166   4.48256   4.49842   4.50159   4.55161
 Alpha virt. eigenvalues --    4.57235   4.58153   4.58569   4.63179   4.68878
 Alpha virt. eigenvalues --    4.78182   4.84410   4.88858   4.89877   4.90420
 Alpha virt. eigenvalues --    4.90686   4.92351   4.94322   5.02738   5.03285
 Alpha virt. eigenvalues --    5.10492   5.14540   5.15692   5.17139   5.20342
 Alpha virt. eigenvalues --    5.22218   5.27551   5.28932   5.30388   5.39357
 Alpha virt. eigenvalues --    5.43196   5.46591   5.47993   5.53032   5.54144
 Alpha virt. eigenvalues --    5.63126   5.65860   5.74324   6.12124   6.13178
 Alpha virt. eigenvalues --    6.13895   6.21249   6.21628   6.79266   6.79874
 Alpha virt. eigenvalues --    6.83945   6.96173   7.62543   7.64533   7.67804
 Alpha virt. eigenvalues --    8.03811   8.08083   8.11718  10.34844  15.34214
 Alpha virt. eigenvalues --   52.69590
          Condensed to atoms (all electrons):
 Mulliken charges:
               1
     1  C    0.507200
     2  H    0.052012
     3  H   -0.071685
     4  H   -0.034602
     5  H   -0.581225
     6  C   -0.009826
     7  H   -0.011152
     8  H    0.001571
     9  H    0.152384
    10  H   -0.004678
 Sum of Mulliken charges =  -0.00000
 Mulliken charges with hydrogens summed into heavy atoms:
               1
     1  C   -0.128299
     6  C    0.128299
 Electronic spatial extent (au):  <R**2>=             35.5801
 Charge=             -0.0000 electrons
 Dipole moment (field-independent basis, Debye):
    X=              0.0001    Y=             -0.0006    Z=              0.0004  Tot=              0.0008

 Test job not archived.
 1\1\GINC-CHIMERA-NODE48\SP\RM05\Gen\C2H8\CONNORNM\08-Dec-2018\0\\#T M0
 5/Gen test Massage SCF=(tight,maxcyc=40)\\M05 opt\\0,1\C,0,0.,0.,0.\H,
 0,0.91672574,0.,0.62096688\H,0,-0.62160832,-0.87875716,0.25956677\H,0,
 -0.57435948,0.92739842,0.18981389\H,0,0.27924206,-0.04864126,-1.070347
 54\C,0,0.,0.,3.26714319\H,0,1.00164228,0.43796881,3.09141036\H,0,-0.41
 127266,0.38927752,4.21861771\H,0,-0.67462344,0.27526218,2.43341667\H,0
 ,0.08425382,-1.10250851,3.32512802\\Version=AS64L-G09RevD.01\HF=-45.95
 14712\RMSD=6.484e-09\Dipole=0.0000505,-0.0002521,0.0001573\Quadrupole=
 -0.0001271,-0.0007961,0.0009232,-0.0000539,-0.0004827,-0.0002328\PG=C0
 1 [X(C2H8)]\\@


 TIME GOES, YOU SAY?  AH NO!
 ALAS, TIME STAYS, WE GO.
    -- A. DOBSON (1840-1921)
 Job cpu time:       0 days  0 hours 17 minutes 38.8 seconds.
 File lengths (MBytes):  RWF=     41 Int=      0 D2E=      0 Chk=      4 Scr=      1
 Normal termination of Gaussian 09 at Sat Dec  8 15:17:20 2018.
