 Entering Gaussian System, Link 0=/data/szalewicgrp/connornm/opt/Gaussian/g09-M05-par/g09/g09
 AtFile(1): aug-cc-pVTZ.gbs
 Initial command:
 /data/szalewicgrp/connornm/opt/Gaussian/g09-M05-par/g09/l1.exe "/scratch/local/Gau-35649.inp" -scrdir="/scratch/local/"
 Entering Link 1 = /data/szalewicgrp/connornm/opt/Gaussian/g09-M05-par/g09/l1.exe PID=     35650.
  
 Copyright (c) 1988,1990,1992,1993,1995,1998,2003,2009,2013,
            Gaussian, Inc.  All Rights Reserved.
  
 This is part of the Gaussian(R) 09 program.  It is based on
 the Gaussian(R) 03 system (copyright 2003, Gaussian, Inc.),
 the Gaussian(R) 98 system (copyright 1998, Gaussian, Inc.),
 the Gaussian(R) 94 system (copyright 1995, Gaussian, Inc.),
 the Gaussian 92(TM) system (copyright 1992, Gaussian, Inc.),
 the Gaussian 90(TM) system (copyright 1990, Gaussian, Inc.),
 the Gaussian 88(TM) system (copyright 1988, Gaussian, Inc.),
 the Gaussian 86(TM) system (copyright 1986, Carnegie Mellon
 University), and the Gaussian 82(TM) system (copyright 1983,
 Carnegie Mellon University). Gaussian is a federally registered
 trademark of Gaussian, Inc.
  
 This software contains proprietary and confidential information,
 including trade secrets, belonging to Gaussian, Inc.
  
 This software is provided under written license and may be
 used, copied, transmitted, or stored only in accord with that
 written license.
  
 The following legend is applicable only to US Government
 contracts under FAR:
  
                    RESTRICTED RIGHTS LEGEND
  
 Use, reproduction and disclosure by the US Government is
 subject to restrictions as set forth in subparagraphs (a)
 and (c) of the Commercial Computer Software - Restricted
 Rights clause in FAR 52.227-19.
  
 Gaussian, Inc.
 340 Quinnipiac St., Bldg. 40, Wallingford CT 06492
  
  
 ---------------------------------------------------------------
 Warning -- This program may not be used in any manner that
 competes with the business of Gaussian, Inc. or will provide
 assistance to any competitor of Gaussian, Inc.  The licensee
 of this program is prohibited from giving any competitor of
 Gaussian, Inc. access to this program.  By using this program,
 the user acknowledges that Gaussian, Inc. is engaged in the
 business of creating and licensing software in the field of
 computational chemistry and represents and warrants to the
 licensee that it is not a competitor of Gaussian, Inc. and that
 it will not use this program in any manner prohibited above.
 ---------------------------------------------------------------
  

 Cite this work as:
 Gaussian 09, Revision D.01,
 M. J. Frisch, G. W. Trucks, H. B. Schlegel, G. E. Scuseria, 
 M. A. Robb, J. R. Cheeseman, G. Scalmani, V. Barone, B. Mennucci, 
 G. A. Petersson, H. Nakatsuji, M. Caricato, X. Li, H. P. Hratchian, 
 A. F. Izmaylov, J. Bloino, G. Zheng, J. L. Sonnenberg, M. Hada, 
 M. Ehara, K. Toyota, R. Fukuda, J. Hasegawa, M. Ishida, T. Nakajima, 
 Y. Honda, O. Kitao, H. Nakai, T. Vreven, J. A. Montgomery, Jr., 
 J. E. Peralta, F. Ogliaro, M. Bearpark, J. J. Heyd, E. Brothers, 
 K. N. Kudin, V. N. Staroverov, T. Keith, R. Kobayashi, J. Normand, 
 K. Raghavachari, A. Rendell, J. C. Burant, S. S. Iyengar, J. Tomasi, 
 M. Cossi, N. Rega, J. M. Millam, M. Klene, J. E. Knox, J. B. Cross, 
 V. Bakken, C. Adamo, J. Jaramillo, R. Gomperts, R. E. Stratmann, 
 O. Yazyev, A. J. Austin, R. Cammi, C. Pomelli, J. W. Ochterski, 
 R. L. Martin, K. Morokuma, V. G. Zakrzewski, G. A. Voth, 
 P. Salvador, J. J. Dannenberg, S. Dapprich, A. D. Daniels, 
 O. Farkas, J. B. Foresman, J. V. Ortiz, J. Cioslowski, 
 and D. J. Fox, Gaussian, Inc., Wallingford CT, 2013.
 
 ******************************************
 Gaussian 09:  AS64L-G09RevD.01 24-Apr-2013
                 8-Dec-2018 
 ******************************************
 %Chk=CH400182
 %Mem=2GB
 %NProcShared=16
 Will use up to   16 processors via shared memory.
 ---------------------------------------------
 #T M05/Gen test Massage SCF=(tight,maxcyc=40)
 ---------------------------------------------
 -------
 M05 opt
 -------
 Symbolic Z-matrix:
 Charge =  0 Multiplicity = 1
 6                     0.        0.        0. 
 1                     1.09825   0.       -0.1408 
 1                    -0.45736   0.75802  -0.66499 
 1                    -0.40393  -1.0006   -0.24824 
 1                    -0.23697   0.24258   1.05403 
 6-Bq                  0.        0.        2.7856 
 1-Bq                  0.20405  -1.02615   3.14805 
 1-Bq                  0.78465   0.29941   2.06403 
 1-Bq                 -0.9886    0.02576   2.28761 
 1-Bq                 -0.00011   0.70097   3.6427 
 
                    Distance matrix (angstroms):
                    1          2          3          4          5
     1  C    0.000000
     2  H    1.107242   0.000000
     3  H    1.107243   1.808119   0.000000
     4  H    1.107243   1.808119   1.808119   0.000000
     5  H    1.107243   1.808119   1.808119   1.808119   0.000000
     6  C    2.785596   3.125696   3.562349   3.220016   1.764457
     7  H    3.317355   3.559374   4.261457   3.450372   2.487787
     8  H    2.228349   2.247059   3.033228   2.906772   1.437716
     9  H    2.492215   3.201999   3.088083   2.797459   1.460707
    10  H    3.709528   4.001578   4.332264   4.265888   2.639583
                    6          7          8          9         10
     6  C    0.000000
     7  H    1.107243   0.000000
     8  H    1.107243   1.808119   0.000000
     9  H    1.107242   1.808119   1.808119   0.000000
    10  H    1.107242   1.808119   1.808119   1.808119   0.000000
 Symmetry turned off by external request.
 This structure is nearly, but not quite of a higher symmetry.
 Consider Symm=Loose if the higher symmetry is desired.
 Framework group  C1[X(C2H8)]
 Deg. of freedom    24
 Rotational constants (GHZ):     76.6916057      7.3469556      7.3469556
   276 basis functions,   360 primitive gaussians,   310 cartesian basis functions
     5 alpha electrons        5 beta electrons
       nuclear repulsion energy        13.2261669963 Hartrees.
 IMHF & INEx in M05                  614413                  385587
 NAtoms=   10 NActive=   10 NUniq=   10 SFac= 1.00D+00 NAtFMM=   60 NAOKFM=F Big=F
 ExpMin= 2.53D-02 ExpMax= 8.24D+03 ExpMxC= 2.81D+02 IAcc=3 IRadAn=         5 AccDes= 0.00D+00
 Harris functional with IExCor= 1009 and IRadAn=       5 diagonalized for initial guess.
 HarFok:  IExCor= 1009 AccDes= 0.00D+00 IRadAn=         5 IDoV= 1 UseB2=F ITyADJ=14
 ICtDFT=  3500011 ScaDFX=  1.000000  1.000000  1.000000  1.000000
 FoFCou: FMM=F IPFlag=           0 FMFlag=      100000 FMFlg1=           0
         NFxFlg=           0 DoJE=T BraDBF=F KetDBF=T FulRan=T
         wScrn=  0.000000 ICntrl=     500 IOpCl=  0 I1Cent=   200000004 NGrid=           0
         NMat0=    1 NMatS0=      1 NMatT0=    0 NMatD0=    1 NMtDS0=    0 NMtDT0=    0
 Symmetry not used in FoFCou.
 SCF Done:  E(RM05) =  -45.8814818152     A.U. after   11 cycles
            NFock= 11  Conv=0.39D-08     -V/T= 2.0326

 **********************************************************************

            Population analysis using the SCF density.

 **********************************************************************

 Alpha  occ. eigenvalues --  -12.05238  -0.99443  -0.71171  -0.71153  -0.71148
 Alpha virt. eigenvalues --   -0.08930  -0.01748  -0.01710  -0.01704  -0.00445
 Alpha virt. eigenvalues --   -0.00417  -0.00369   0.03408   0.03740   0.04440
 Alpha virt. eigenvalues --    0.05398   0.05916   0.06724   0.07168   0.07672
 Alpha virt. eigenvalues --    0.08294   0.10454   0.11332   0.12273   0.13329
 Alpha virt. eigenvalues --    0.14734   0.18195   0.19309   0.19470   0.20484
 Alpha virt. eigenvalues --    0.20960   0.21088   0.22329   0.23032   0.23503
 Alpha virt. eigenvalues --    0.23986   0.24582   0.25301   0.25498   0.27172
 Alpha virt. eigenvalues --    0.27899   0.29140   0.30216   0.31094   0.32462
 Alpha virt. eigenvalues --    0.33981   0.34662   0.35973   0.36637   0.37591
 Alpha virt. eigenvalues --    0.38370   0.38719   0.40639   0.41912   0.43248
 Alpha virt. eigenvalues --    0.44247   0.45148   0.45755   0.47467   0.47986
 Alpha virt. eigenvalues --    0.50764   0.51255   0.52567   0.54095   0.55366
 Alpha virt. eigenvalues --    0.56164   0.57427   0.57899   0.58783   0.59948
 Alpha virt. eigenvalues --    0.60960   0.63632   0.63688   0.64560   0.66814
 Alpha virt. eigenvalues --    0.67162   0.71300   0.72005   0.73696   0.75690
 Alpha virt. eigenvalues --    0.76724   0.77186   0.79072   0.79610   0.82983
 Alpha virt. eigenvalues --    0.84009   0.84297   0.86703   0.88303   0.90347
 Alpha virt. eigenvalues --    0.90978   0.91974   0.93040   0.93437   0.94601
 Alpha virt. eigenvalues --    0.96058   0.96987   0.97074   1.00150   1.00877
 Alpha virt. eigenvalues --    1.02462   1.03589   1.04995   1.05926   1.07522
 Alpha virt. eigenvalues --    1.09581   1.11921   1.13139   1.15177   1.15326
 Alpha virt. eigenvalues --    1.17805   1.17963   1.21013   1.21934   1.23644
 Alpha virt. eigenvalues --    1.24404   1.25181   1.26247   1.26588   1.27016
 Alpha virt. eigenvalues --    1.30062   1.31060   1.32059   1.32800   1.35522
 Alpha virt. eigenvalues --    1.37193   1.37874   1.41660   1.44236   1.47929
 Alpha virt. eigenvalues --    1.48516   1.50463   1.51086   1.54028   1.55831
 Alpha virt. eigenvalues --    1.58051   1.59596   1.61379   1.68668   1.69368
 Alpha virt. eigenvalues --    1.71142   1.74028   1.75381   1.76761   1.80078
 Alpha virt. eigenvalues --    1.81122   1.82054   1.82606   1.85595   1.86192
 Alpha virt. eigenvalues --    1.88986   1.91879   1.93249   1.95247   1.98301
 Alpha virt. eigenvalues --    1.99584   2.00669   2.03886   2.11716   2.13281
 Alpha virt. eigenvalues --    2.14919   2.24175   2.30923   2.34322   2.39675
 Alpha virt. eigenvalues --    2.40499   2.48192   2.49338   2.57147   2.57709
 Alpha virt. eigenvalues --    2.59282   2.62202   2.67156   2.74468   2.92266
 Alpha virt. eigenvalues --    3.02161   3.04781   3.07479   3.08960   3.15486
 Alpha virt. eigenvalues --    3.20736   3.22513   3.23850   3.27331   3.30216
 Alpha virt. eigenvalues --    3.40065   3.47710   3.50530   3.52306   3.54298
 Alpha virt. eigenvalues --    3.56055   3.58977   3.59080   3.61525   3.63733
 Alpha virt. eigenvalues --    3.72002   3.79434   3.83134   3.87500   3.91741
 Alpha virt. eigenvalues --    3.94265   3.96358   3.98095   4.01847   4.02892
 Alpha virt. eigenvalues --    4.05937   4.08012   4.09488   4.15403   4.16606
 Alpha virt. eigenvalues --    4.18702   4.19582   4.25859   4.30092   4.32372
 Alpha virt. eigenvalues --    4.32799   4.36022   4.36307   4.41877   4.43248
 Alpha virt. eigenvalues --    4.44607   4.46171   4.49178   4.51358   4.53336
 Alpha virt. eigenvalues --    4.55426   4.58352   4.65606   4.75883   4.78341
 Alpha virt. eigenvalues --    4.80087   4.82074   4.83992   4.89134   4.92792
 Alpha virt. eigenvalues --    4.98286   5.03888   5.04555   5.06710   5.12000
 Alpha virt. eigenvalues --    5.12851   5.14245   5.16101   5.17251   5.20725
 Alpha virt. eigenvalues --    5.23038   5.24873   5.29538   5.42453   5.43688
 Alpha virt. eigenvalues --    5.48918   5.53927   5.60567   5.63929   5.65953
 Alpha virt. eigenvalues --    5.72265   5.76468   5.92643   5.96668   6.05092
 Alpha virt. eigenvalues --    6.08681   6.10413   6.17072   6.73251   6.73442
 Alpha virt. eigenvalues --    6.76194   7.23830   7.43671   7.57211   7.58356
 Alpha virt. eigenvalues --    7.96793   7.99584   8.10784  10.55888  15.98323
 Alpha virt. eigenvalues --   54.19022
          Condensed to atoms (all electrons):
 Mulliken charges:
               1
     1  C   -0.235890
     2  H   -0.364536
     3  H   -0.664554
     4  H   -0.346003
     5  H    1.650276
     6  C   -0.151999
     7  H   -0.055962
     8  H    0.056620
     9  H    0.090500
    10  H    0.021548
 Sum of Mulliken charges =  -0.00000
 Mulliken charges with hydrogens summed into heavy atoms:
               1
     1  C    0.039292
     6  C   -0.039292
 Electronic spatial extent (au):  <R**2>=             35.5895
 Charge=             -0.0000 electrons
 Dipole moment (field-independent basis, Debye):
    X=              0.0002    Y=             -0.0005    Z=              0.0006  Tot=              0.0008

 Test job not archived.
 1\1\GINC-CHIMERA-NODE15\SP\RM05\Gen\C2H8\CONNORNM\08-Dec-2018\0\\#T M0
 5/Gen test Massage SCF=(tight,maxcyc=40)\\M05 opt\\0,1\C,0,0.,0.,0.\H,
 0,1.09825324,0.,-0.14080401\H,0,-0.45735861,0.75801995,-0.66499234\H,0
 ,-0.40392753,-1.00060332,-0.24823679\H,0,-0.23696711,0.24258337,1.0540
 3314\C,0,0.,0.,2.78559569\H,0,0.20405098,-1.02614553,3.1480519\H,0,0.7
 8465401,0.29940662,2.06402815\H,0,-0.98859962,0.02576448,2.2876068\H,0
 ,-0.00010536,0.70097443,3.64269591\\Version=AS64L-G09RevD.01\HF=-45.88
 14818\RMSD=3.936e-09\Dipole=0.0000654,-0.0002006,0.0002353\Quadrupole=
 0.0002495,-0.0004661,0.0002166,0.0003131,0.0012998,-0.0005545\PG=C01 [
 X(C2H8)]\\@


 CHEMISTRY BEGAN BY SAYING IT WOULD CHANGE THE BASER
 METALS INTO GOLD.  BY NOT DOING THAT IT HAS DONE MUCH
 GREATER THINGS.  --  RALPH WALDO EMERSON
 Job cpu time:       0 days  0 hours 20 minutes  9.5 seconds.
 File lengths (MBytes):  RWF=     41 Int=      0 D2E=      0 Chk=      4 Scr=      1
 Normal termination of Gaussian 09 at Sat Dec  8 13:52:17 2018.
