 Entering Gaussian System, Link 0=/data/szalewicgrp/connornm/opt/Gaussian/g09-M05-par/g09/g09
 AtFile(1): aug-cc-pVTZ.gbs
 Initial command:
 /data/szalewicgrp/connornm/opt/Gaussian/g09-M05-par/g09/l1.exe "/scratch/local/Gau-11850.inp" -scrdir="/scratch/local/"
 Entering Link 1 = /data/szalewicgrp/connornm/opt/Gaussian/g09-M05-par/g09/l1.exe PID=     11851.
  
 Copyright (c) 1988,1990,1992,1993,1995,1998,2003,2009,2013,
            Gaussian, Inc.  All Rights Reserved.
  
 This is part of the Gaussian(R) 09 program.  It is based on
 the Gaussian(R) 03 system (copyright 2003, Gaussian, Inc.),
 the Gaussian(R) 98 system (copyright 1998, Gaussian, Inc.),
 the Gaussian(R) 94 system (copyright 1995, Gaussian, Inc.),
 the Gaussian 92(TM) system (copyright 1992, Gaussian, Inc.),
 the Gaussian 90(TM) system (copyright 1990, Gaussian, Inc.),
 the Gaussian 88(TM) system (copyright 1988, Gaussian, Inc.),
 the Gaussian 86(TM) system (copyright 1986, Carnegie Mellon
 University), and the Gaussian 82(TM) system (copyright 1983,
 Carnegie Mellon University). Gaussian is a federally registered
 trademark of Gaussian, Inc.
  
 This software contains proprietary and confidential information,
 including trade secrets, belonging to Gaussian, Inc.
  
 This software is provided under written license and may be
 used, copied, transmitted, or stored only in accord with that
 written license.
  
 The following legend is applicable only to US Government
 contracts under FAR:
  
                    RESTRICTED RIGHTS LEGEND
  
 Use, reproduction and disclosure by the US Government is
 subject to restrictions as set forth in subparagraphs (a)
 and (c) of the Commercial Computer Software - Restricted
 Rights clause in FAR 52.227-19.
  
 Gaussian, Inc.
 340 Quinnipiac St., Bldg. 40, Wallingford CT 06492
  
  
 ---------------------------------------------------------------
 Warning -- This program may not be used in any manner that
 competes with the business of Gaussian, Inc. or will provide
 assistance to any competitor of Gaussian, Inc.  The licensee
 of this program is prohibited from giving any competitor of
 Gaussian, Inc. access to this program.  By using this program,
 the user acknowledges that Gaussian, Inc. is engaged in the
 business of creating and licensing software in the field of
 computational chemistry and represents and warrants to the
 licensee that it is not a competitor of Gaussian, Inc. and that
 it will not use this program in any manner prohibited above.
 ---------------------------------------------------------------
  

 Cite this work as:
 Gaussian 09, Revision D.01,
 M. J. Frisch, G. W. Trucks, H. B. Schlegel, G. E. Scuseria, 
 M. A. Robb, J. R. Cheeseman, G. Scalmani, V. Barone, B. Mennucci, 
 G. A. Petersson, H. Nakatsuji, M. Caricato, X. Li, H. P. Hratchian, 
 A. F. Izmaylov, J. Bloino, G. Zheng, J. L. Sonnenberg, M. Hada, 
 M. Ehara, K. Toyota, R. Fukuda, J. Hasegawa, M. Ishida, T. Nakajima, 
 Y. Honda, O. Kitao, H. Nakai, T. Vreven, J. A. Montgomery, Jr., 
 J. E. Peralta, F. Ogliaro, M. Bearpark, J. J. Heyd, E. Brothers, 
 K. N. Kudin, V. N. Staroverov, T. Keith, R. Kobayashi, J. Normand, 
 K. Raghavachari, A. Rendell, J. C. Burant, S. S. Iyengar, J. Tomasi, 
 M. Cossi, N. Rega, J. M. Millam, M. Klene, J. E. Knox, J. B. Cross, 
 V. Bakken, C. Adamo, J. Jaramillo, R. Gomperts, R. E. Stratmann, 
 O. Yazyev, A. J. Austin, R. Cammi, C. Pomelli, J. W. Ochterski, 
 R. L. Martin, K. Morokuma, V. G. Zakrzewski, G. A. Voth, 
 P. Salvador, J. J. Dannenberg, S. Dapprich, A. D. Daniels, 
 O. Farkas, J. B. Foresman, J. V. Ortiz, J. Cioslowski, 
 and D. J. Fox, Gaussian, Inc., Wallingford CT, 2013.
 
 ******************************************
 Gaussian 09:  AS64L-G09RevD.01 24-Apr-2013
                 8-Dec-2018 
 ******************************************
 %Chk=CH400046
 %Mem=2GB
 %NProcShared=16
 Will use up to   16 processors via shared memory.
 ---------------------------------------------
 #T M05/Gen test Massage SCF=(tight,maxcyc=40)
 ---------------------------------------------
 -------
 M05 opt
 -------
 Symbolic Z-matrix:
 Charge =  0 Multiplicity = 1
 6                     0.        0.        0. 
 1                     0.21455   0.        1.08626 
 1                    -0.61792   0.88293  -0.25416 
 1                     0.95183   0.04088  -0.56421 
 1                    -0.54846  -0.92381  -0.26788 
 6-Bq                  0.        0.        4.41005 
 1-Bq                 -0.16234   1.08129   4.23558 
 1-Bq                 -0.34783  -0.26608   5.427 
 1-Bq                 -0.56867  -0.5842    3.66084 
 1-Bq                  1.07885  -0.23102   4.31676 
 
                    Distance matrix (angstroms):
                    1          2          3          4          5
     1  C    0.000000
     2  H    1.107243   0.000000
     3  H    1.107242   1.808119   0.000000
     4  H    1.107242   1.808119   1.808119   0.000000
     5  H    1.107242   1.808119   1.808119   1.808119   0.000000
     6  C    4.410047   3.330707   4.787091   5.064671   4.799715
     7  H    4.374440   3.351045   4.517160   5.036056   4.944769
     8  H    5.444644   4.385106   5.802483   6.138240   5.736253
     9  H    3.750526   2.753764   4.181165   4.533622   3.943429
    10  H    4.455523   3.352092   5.001323   4.890186   4.913962
                    6          7          8          9         10
     6  C    0.000000
     7  H    1.107243   0.000000
     8  H    1.107242   1.808119   0.000000
     9  H    1.107243   1.808119   1.808119   0.000000
    10  H    1.107242   1.808119   1.808119   1.808119   0.000000
 Symmetry turned off by external request.
 This structure is nearly, but not quite of a higher symmetry.
 Consider Symm=Loose if the higher symmetry is desired.
 Framework group  C1[X(C2H8)]
 Deg. of freedom    24
 Rotational constants (GHZ):     76.6916058      3.1103646      3.1103646
   276 basis functions,   360 primitive gaussians,   310 cartesian basis functions
     5 alpha electrons        5 beta electrons
       nuclear repulsion energy        13.2261670299 Hartrees.
 IMHF & INEx in M05                  614413                  385587
 NAtoms=   10 NActive=   10 NUniq=   10 SFac= 1.00D+00 NAtFMM=   60 NAOKFM=F Big=F
 ExpMin= 2.53D-02 ExpMax= 8.24D+03 ExpMxC= 2.81D+02 IAcc=3 IRadAn=         5 AccDes= 0.00D+00
 Harris functional with IExCor= 1009 and IRadAn=       5 diagonalized for initial guess.
 HarFok:  IExCor= 1009 AccDes= 0.00D+00 IRadAn=         5 IDoV= 1 UseB2=F ITyADJ=14
 ICtDFT=  3500011 ScaDFX=  1.000000  1.000000  1.000000  1.000000
 FoFCou: FMM=F IPFlag=           0 FMFlag=      100000 FMFlg1=           0
         NFxFlg=           0 DoJE=T BraDBF=F KetDBF=T FulRan=T
         wScrn=  0.000000 ICntrl=     500 IOpCl=  0 I1Cent=   200000004 NGrid=           0
         NMat0=    1 NMatS0=      1 NMatT0=    0 NMatD0=    1 NMtDS0=    0 NMtDT0=    0
 Symmetry not used in FoFCou.
 SCF Done:  E(RM05) =  -45.8798813101     A.U. after   10 cycles
            NFock= 10  Conv=0.56D-08     -V/T= 2.0334

 **********************************************************************

            Population analysis using the SCF density.

 **********************************************************************

 Alpha  occ. eigenvalues --  -12.05203  -0.99433  -0.71144  -0.71138  -0.71137
 Alpha virt. eigenvalues --   -0.08963  -0.01750  -0.01726  -0.01722  -0.00390
 Alpha virt. eigenvalues --   -0.00376  -0.00290   0.02889   0.03900   0.04148
 Alpha virt. eigenvalues --    0.05188   0.06387   0.06638   0.07167   0.07465
 Alpha virt. eigenvalues --    0.08064   0.10128   0.10984   0.11397   0.12029
 Alpha virt. eigenvalues --    0.13951   0.17085   0.19167   0.19813   0.20173
 Alpha virt. eigenvalues --    0.20926   0.21126   0.21433   0.22249   0.22941
 Alpha virt. eigenvalues --    0.23868   0.24769   0.25019   0.25094   0.26358
 Alpha virt. eigenvalues --    0.26849   0.27216   0.28012   0.29308   0.29593
 Alpha virt. eigenvalues --    0.30424   0.30768   0.32495   0.34785   0.35521
 Alpha virt. eigenvalues --    0.36223   0.36975   0.37840   0.38914   0.39729
 Alpha virt. eigenvalues --    0.41700   0.42092   0.43313   0.46159   0.46731
 Alpha virt. eigenvalues --    0.47774   0.48839   0.49970   0.52094   0.53847
 Alpha virt. eigenvalues --    0.55071   0.55693   0.56925   0.58108   0.59031
 Alpha virt. eigenvalues --    0.63082   0.63692   0.65058   0.65871   0.66033
 Alpha virt. eigenvalues --    0.66587   0.68469   0.70611   0.70810   0.72059
 Alpha virt. eigenvalues --    0.73292   0.73845   0.76703   0.77025   0.77930
 Alpha virt. eigenvalues --    0.78927   0.79975   0.83259   0.85746   0.86405
 Alpha virt. eigenvalues --    0.88382   0.90511   0.91366   0.91723   0.91823
 Alpha virt. eigenvalues --    0.93818   0.95174   0.95584   0.96389   0.98802
 Alpha virt. eigenvalues --    0.99316   1.00563   1.02063   1.03148   1.04582
 Alpha virt. eigenvalues --    1.05609   1.06067   1.07266   1.08508   1.10411
 Alpha virt. eigenvalues --    1.11335   1.12483   1.12768   1.14593   1.18447
 Alpha virt. eigenvalues --    1.19693   1.21856   1.23112   1.23575   1.24132
 Alpha virt. eigenvalues --    1.25397   1.25751   1.27203   1.27598   1.27926
 Alpha virt. eigenvalues --    1.30960   1.31941   1.34378   1.34721   1.36214
 Alpha virt. eigenvalues --    1.37996   1.38424   1.38983   1.40404   1.44755
 Alpha virt. eigenvalues --    1.46064   1.47570   1.48471   1.51233   1.54779
 Alpha virt. eigenvalues --    1.57617   1.59571   1.62112   1.68729   1.70611
 Alpha virt. eigenvalues --    1.72149   1.75621   1.80217   1.81506   1.83571
 Alpha virt. eigenvalues --    1.84695   1.86726   1.89984   1.92752   1.98068
 Alpha virt. eigenvalues --    2.01262   2.01443   2.03941   2.04190   2.06894
 Alpha virt. eigenvalues --    2.09099   2.19567   2.26791   2.27414   2.36204
 Alpha virt. eigenvalues --    2.38056   2.44681   2.46709   2.48056   2.49240
 Alpha virt. eigenvalues --    2.51379   2.67661   2.69057   2.71857   2.83243
 Alpha virt. eigenvalues --    2.97341   2.97493   2.99098   2.99574   3.00394
 Alpha virt. eigenvalues --    3.04114   3.07092   3.11596   3.21963   3.22984
 Alpha virt. eigenvalues --    3.30085   3.44469   3.45366   3.46168   3.47255
 Alpha virt. eigenvalues --    3.48526   3.49292   3.50786   3.55523   3.55930
 Alpha virt. eigenvalues --    3.71467   3.89331   3.90842   3.91441   3.98812
 Alpha virt. eigenvalues --    3.99829   4.00998   4.02048   4.02433   4.03406
 Alpha virt. eigenvalues --    4.03644   4.04468   4.06094   4.06474   4.09226
 Alpha virt. eigenvalues --    4.15898   4.17532   4.18140   4.18893   4.21148
 Alpha virt. eigenvalues --    4.32960   4.35826   4.36648   4.40650   4.43405
 Alpha virt. eigenvalues --    4.46087   4.46626   4.47125   4.49210   4.50418
 Alpha virt. eigenvalues --    4.53433   4.56332   4.59833   4.60025   4.66260
 Alpha virt. eigenvalues --    4.75828   4.82144   4.88635   4.89668   4.89811
 Alpha virt. eigenvalues --    4.91854   4.92305   4.96004   5.02472   5.02706
 Alpha virt. eigenvalues --    5.14744   5.14989   5.15290   5.16195   5.17846
 Alpha virt. eigenvalues --    5.19360   5.29722   5.30195   5.31362   5.41476
 Alpha virt. eigenvalues --    5.42451   5.47554   5.48626   5.50173   5.53732
 Alpha virt. eigenvalues --    5.60997   5.62370   5.68190   6.13627   6.14272
 Alpha virt. eigenvalues --    6.15176   6.24300   6.24438   6.80344   6.81223
 Alpha virt. eigenvalues --    6.82379   6.96834   7.65585   7.65945   7.68505
 Alpha virt. eigenvalues --    8.03979   8.07186   8.09761  10.31583  15.11107
 Alpha virt. eigenvalues --   52.35597
          Condensed to atoms (all electrons):
 Mulliken charges:
               1
     1  C    0.032330
     2  H    0.926922
     3  H   -0.290819
     4  H   -0.369889
     5  H   -0.307229
     6  C   -0.002294
     7  H    0.002395
     8  H   -0.001573
     9  H    0.008493
    10  H    0.001664
 Sum of Mulliken charges =  -0.00000
 Mulliken charges with hydrogens summed into heavy atoms:
               1
     1  C   -0.008685
     6  C    0.008685
 Electronic spatial extent (au):  <R**2>=             35.5899
 Charge=             -0.0000 electrons
 Dipole moment (field-independent basis, Debye):
    X=              0.0002    Y=             -0.0001    Z=             -0.0004  Tot=              0.0004

 Test job not archived.
 1\1\GINC-CHIMERA-NODE31\SP\RM05\Gen\C2H8\CONNORNM\08-Dec-2018\0\\#T M0
 5/Gen test Massage SCF=(tight,maxcyc=40)\\M05 opt\\0,1\C,0,0.,0.,0.\H,
 0,0.21455012,0.,1.08625697\H,0,-0.61792414,0.88292519,-0.25416296\H,0,
 0.95183054,0.04088199,-0.56421027\H,0,-0.54845652,-0.92380718,-0.26788
 373\C,0,0.,0.,4.41004696\H,0,-0.16233991,1.08129297,4.23558426\H,0,-0.
 34783397,-0.26607812,5.42700316\H,0,-0.56867472,-0.58419773,3.66084202
 \H,0,1.07884859,-0.23101711,4.31675838\\Version=AS64L-G09RevD.01\HF=-4
 5.8798813\RMSD=5.574e-09\Dipole=0.0000838,-0.0000234,-0.0001435\Quadru
 pole=0.0005558,-0.000456,-0.0000999,0.0002809,-0.000054,-0.0000008\PG=
 C01 [X(C2H8)]\\@


 There ain't no surer way to find out whether you
 like people or hate them than to travel with them.
                                     -- Mark Twain
 Job cpu time:       0 days  0 hours 15 minutes  0.4 seconds.
 File lengths (MBytes):  RWF=     41 Int=      0 D2E=      0 Chk=      4 Scr=      1
 Normal termination of Gaussian 09 at Sat Dec  8 13:24:17 2018.
