 Entering Gaussian System, Link 0=/data/szalewicgrp/connornm/opt/Gaussian/g09-M05-par/g09/g09
 AtFile(1): aug-cc-pVTZ.gbs
 Initial command:
 /data/szalewicgrp/connornm/opt/Gaussian/g09-M05-par/g09/l1.exe "/scratch/local/Gau-17072.inp" -scrdir="/scratch/local/"
 Entering Link 1 = /data/szalewicgrp/connornm/opt/Gaussian/g09-M05-par/g09/l1.exe PID=     17073.
  
 Copyright (c) 1988,1990,1992,1993,1995,1998,2003,2009,2013,
            Gaussian, Inc.  All Rights Reserved.
  
 This is part of the Gaussian(R) 09 program.  It is based on
 the Gaussian(R) 03 system (copyright 2003, Gaussian, Inc.),
 the Gaussian(R) 98 system (copyright 1998, Gaussian, Inc.),
 the Gaussian(R) 94 system (copyright 1995, Gaussian, Inc.),
 the Gaussian 92(TM) system (copyright 1992, Gaussian, Inc.),
 the Gaussian 90(TM) system (copyright 1990, Gaussian, Inc.),
 the Gaussian 88(TM) system (copyright 1988, Gaussian, Inc.),
 the Gaussian 86(TM) system (copyright 1986, Carnegie Mellon
 University), and the Gaussian 82(TM) system (copyright 1983,
 Carnegie Mellon University). Gaussian is a federally registered
 trademark of Gaussian, Inc.
  
 This software contains proprietary and confidential information,
 including trade secrets, belonging to Gaussian, Inc.
  
 This software is provided under written license and may be
 used, copied, transmitted, or stored only in accord with that
 written license.
  
 The following legend is applicable only to US Government
 contracts under FAR:
  
                    RESTRICTED RIGHTS LEGEND
  
 Use, reproduction and disclosure by the US Government is
 subject to restrictions as set forth in subparagraphs (a)
 and (c) of the Commercial Computer Software - Restricted
 Rights clause in FAR 52.227-19.
  
 Gaussian, Inc.
 340 Quinnipiac St., Bldg. 40, Wallingford CT 06492
  
  
 ---------------------------------------------------------------
 Warning -- This program may not be used in any manner that
 competes with the business of Gaussian, Inc. or will provide
 assistance to any competitor of Gaussian, Inc.  The licensee
 of this program is prohibited from giving any competitor of
 Gaussian, Inc. access to this program.  By using this program,
 the user acknowledges that Gaussian, Inc. is engaged in the
 business of creating and licensing software in the field of
 computational chemistry and represents and warrants to the
 licensee that it is not a competitor of Gaussian, Inc. and that
 it will not use this program in any manner prohibited above.
 ---------------------------------------------------------------
  

 Cite this work as:
 Gaussian 09, Revision D.01,
 M. J. Frisch, G. W. Trucks, H. B. Schlegel, G. E. Scuseria, 
 M. A. Robb, J. R. Cheeseman, G. Scalmani, V. Barone, B. Mennucci, 
 G. A. Petersson, H. Nakatsuji, M. Caricato, X. Li, H. P. Hratchian, 
 A. F. Izmaylov, J. Bloino, G. Zheng, J. L. Sonnenberg, M. Hada, 
 M. Ehara, K. Toyota, R. Fukuda, J. Hasegawa, M. Ishida, T. Nakajima, 
 Y. Honda, O. Kitao, H. Nakai, T. Vreven, J. A. Montgomery, Jr., 
 J. E. Peralta, F. Ogliaro, M. Bearpark, J. J. Heyd, E. Brothers, 
 K. N. Kudin, V. N. Staroverov, T. Keith, R. Kobayashi, J. Normand, 
 K. Raghavachari, A. Rendell, J. C. Burant, S. S. Iyengar, J. Tomasi, 
 M. Cossi, N. Rega, J. M. Millam, M. Klene, J. E. Knox, J. B. Cross, 
 V. Bakken, C. Adamo, J. Jaramillo, R. Gomperts, R. E. Stratmann, 
 O. Yazyev, A. J. Austin, R. Cammi, C. Pomelli, J. W. Ochterski, 
 R. L. Martin, K. Morokuma, V. G. Zakrzewski, G. A. Voth, 
 P. Salvador, J. J. Dannenberg, S. Dapprich, A. D. Daniels, 
 O. Farkas, J. B. Foresman, J. V. Ortiz, J. Cioslowski, 
 and D. J. Fox, Gaussian, Inc., Wallingford CT, 2013.
 
 ******************************************
 Gaussian 09:  AS64L-G09RevD.01 24-Apr-2013
                 8-Dec-2018 
 ******************************************
 %Chk=CH400060
 %Mem=2GB
 %NProcShared=16
 Will use up to   16 processors via shared memory.
 ---------------------------------------------
 #T M05/Gen test Massage SCF=(tight,maxcyc=40)
 ---------------------------------------------
 -------
 M05 opt
 -------
 Symbolic Z-matrix:
 Charge =  0 Multiplicity = 1
 6                     0.        0.        0. 
 1                     1.10515   0.       -0.06803 
 1                    -0.40958   0.80015  -0.64652 
 1                    -0.39036  -0.98072  -0.33436 
 1                    -0.30521   0.18057   1.04892 
 6-Bq                  0.        0.        3.12666 
 1-Bq                  0.26223  -0.90826   2.55022 
 1-Bq                  0.92323   0.55769   3.37688 
 1-Bq                 -0.66642   0.64286   2.51952 
 1-Bq                 -0.51905  -0.29228   4.06001 
 
                    Distance matrix (angstroms):
                    1          2          3          4          5
     1  C    0.000000
     2  H    1.107243   0.000000
     3  H    1.107243   1.808119   0.000000
     4  H    1.107243   1.808119   1.808119   0.000000
     5  H    1.107242   1.808119   1.808119   1.808119   0.000000
     6  C    3.126657   3.380439   3.878775   3.618405   2.107787
     7  H    2.719799   2.896662   3.686345   2.958367   1.939443
     8  H    3.544953   3.494495   4.245345   4.226766   2.659081
     9  H    2.684284   3.201115   3.180342   3.294979   1.583309
    10  H    4.103474   4.445687   4.832891   4.449832   3.055484
                    6          7          8          9         10
     6  C    0.000000
     7  H    1.107243   0.000000
     8  H    1.107243   1.808119   0.000000
     9  H    1.107242   1.808119   1.808119   0.000000
    10  H    1.107242   1.808119   1.808119   1.808119   0.000000
 Symmetry turned off by external request.
 This structure is nearly, but not quite of a higher symmetry.
 Consider Symm=Loose if the higher symmetry is desired.
 Framework group  C1[X(C2H8)]
 Deg. of freedom    24
 Rotational constants (GHZ):     76.6916055      5.9490913      5.9490913
   276 basis functions,   360 primitive gaussians,   310 cartesian basis functions
     5 alpha electrons        5 beta electrons
       nuclear repulsion energy        13.2261669913 Hartrees.
 IMHF & INEx in M05                  614413                  385587
 NAtoms=   10 NActive=   10 NUniq=   10 SFac= 1.00D+00 NAtFMM=   60 NAOKFM=F Big=F
 ExpMin= 2.53D-02 ExpMax= 8.24D+03 ExpMxC= 2.81D+02 IAcc=3 IRadAn=         5 AccDes= 0.00D+00
 Harris functional with IExCor= 1009 and IRadAn=       5 diagonalized for initial guess.
 HarFok:  IExCor= 1009 AccDes= 0.00D+00 IRadAn=         5 IDoV= 1 UseB2=F ITyADJ=14
 ICtDFT=  3500011 ScaDFX=  1.000000  1.000000  1.000000  1.000000
 FoFCou: FMM=F IPFlag=           0 FMFlag=      100000 FMFlg1=           0
         NFxFlg=           0 DoJE=T BraDBF=F KetDBF=T FulRan=T
         wScrn=  0.000000 ICntrl=     500 IOpCl=  0 I1Cent=   200000004 NGrid=           0
         NMat0=    1 NMatS0=      1 NMatT0=    0 NMatD0=    1 NMtDS0=    0 NMtDT0=    0
 Symmetry not used in FoFCou.
 SCF Done:  E(RM05) =  -45.8810678182     A.U. after   11 cycles
            NFock= 11  Conv=0.39D-08     -V/T= 2.0327

 **********************************************************************

            Population analysis using the SCF density.

 **********************************************************************

 Alpha  occ. eigenvalues --  -12.05234  -0.99441  -0.71164  -0.71144  -0.71143
 Alpha virt. eigenvalues --   -0.08935  -0.01747  -0.01719  -0.01706  -0.00470
 Alpha virt. eigenvalues --   -0.00418  -0.00293   0.03263   0.03961   0.04253
 Alpha virt. eigenvalues --    0.05417   0.06250   0.06598   0.07357   0.07526
 Alpha virt. eigenvalues --    0.08421   0.09406   0.11143   0.12430   0.13235
 Alpha virt. eigenvalues --    0.14954   0.17580   0.18826   0.19664   0.20349
 Alpha virt. eigenvalues --    0.21098   0.21714   0.22423   0.23047   0.23262
 Alpha virt. eigenvalues --    0.24113   0.25012   0.25237   0.25898   0.26505
 Alpha virt. eigenvalues --    0.27139   0.28436   0.29111   0.30730   0.31144
 Alpha virt. eigenvalues --    0.33311   0.34590   0.35209   0.36081   0.37303
 Alpha virt. eigenvalues --    0.37677   0.39006   0.40029   0.40606   0.41835
 Alpha virt. eigenvalues --    0.43638   0.44870   0.44915   0.46977   0.48773
 Alpha virt. eigenvalues --    0.49585   0.51459   0.52008   0.53519   0.54789
 Alpha virt. eigenvalues --    0.55683   0.57432   0.58475   0.59219   0.60219
 Alpha virt. eigenvalues --    0.62092   0.63324   0.63694   0.64321   0.64840
 Alpha virt. eigenvalues --    0.67939   0.69127   0.72152   0.73297   0.74727
 Alpha virt. eigenvalues --    0.76568   0.76874   0.78132   0.80807   0.81245
 Alpha virt. eigenvalues --    0.83320   0.84201   0.85575   0.86562   0.87807
 Alpha virt. eigenvalues --    0.88719   0.92045   0.92161   0.92860   0.93955
 Alpha virt. eigenvalues --    0.96160   0.97407   0.98823   0.99903   1.01321
 Alpha virt. eigenvalues --    1.02007   1.02660   1.03184   1.05014   1.05558
 Alpha virt. eigenvalues --    1.06855   1.09441   1.11801   1.13058   1.14632
 Alpha virt. eigenvalues --    1.16389   1.17327   1.19328   1.20349   1.21687
 Alpha virt. eigenvalues --    1.23112   1.23869   1.24528   1.25509   1.28831
 Alpha virt. eigenvalues --    1.29648   1.30536   1.30998   1.32499   1.33005
 Alpha virt. eigenvalues --    1.33650   1.34825   1.38496   1.40553   1.41552
 Alpha virt. eigenvalues --    1.42875   1.46925   1.48655   1.51219   1.53657
 Alpha virt. eigenvalues --    1.55657   1.56959   1.61432   1.65572   1.66429
 Alpha virt. eigenvalues --    1.68185   1.69958   1.71241   1.74715   1.77823
 Alpha virt. eigenvalues --    1.80458   1.81871   1.83290   1.85376   1.88022
 Alpha virt. eigenvalues --    1.88300   1.90572   1.94476   1.96962   1.98886
 Alpha virt. eigenvalues --    1.99935   2.01308   2.03713   2.08437   2.10868
 Alpha virt. eigenvalues --    2.15239   2.28181   2.29807   2.36284   2.39559
 Alpha virt. eigenvalues --    2.44751   2.45026   2.49393   2.54542   2.58669
 Alpha virt. eigenvalues --    2.62442   2.63261   2.70666   2.71882   2.83771
 Alpha virt. eigenvalues --    3.00247   3.01744   3.05781   3.06788   3.09497
 Alpha virt. eigenvalues --    3.11198   3.18648   3.22040   3.23814   3.27096
 Alpha virt. eigenvalues --    3.39056   3.47792   3.48798   3.50209   3.52193
 Alpha virt. eigenvalues --    3.54925   3.56626   3.58740   3.59789   3.65050
 Alpha virt. eigenvalues --    3.71367   3.87749   3.90647   3.93991   3.94412
 Alpha virt. eigenvalues --    3.95199   3.98447   4.02305   4.05450   4.05990
 Alpha virt. eigenvalues --    4.07625   4.09365   4.09744   4.13757   4.17401
 Alpha virt. eigenvalues --    4.18376   4.20001   4.21220   4.22559   4.26359
 Alpha virt. eigenvalues --    4.28086   4.30506   4.35048   4.43930   4.45234
 Alpha virt. eigenvalues --    4.47084   4.49463   4.50045   4.51707   4.52831
 Alpha virt. eigenvalues --    4.56430   4.58794   4.61750   4.72485   4.74001
 Alpha virt. eigenvalues --    4.80170   4.84465   4.86140   4.88554   4.88955
 Alpha virt. eigenvalues --    4.94149   4.95672   4.98649   5.02074   5.05316
 Alpha virt. eigenvalues --    5.07728   5.14805   5.18539   5.20059   5.22431
 Alpha virt. eigenvalues --    5.25553   5.27960   5.29315   5.36152   5.39629
 Alpha virt. eigenvalues --    5.44864   5.45952   5.46847   5.51137   5.61451
 Alpha virt. eigenvalues --    5.64996   5.69539   5.90340   6.04647   6.09062
 Alpha virt. eigenvalues --    6.11522   6.15690   6.19531   6.75600   6.77209
 Alpha virt. eigenvalues --    6.81235   6.94878   7.54016   7.61267   7.64200
 Alpha virt. eigenvalues --    8.01045   8.06101   8.13045  10.34802  15.84476
 Alpha virt. eigenvalues --   52.94494
          Condensed to atoms (all electrons):
 Mulliken charges:
               1
     1  C   -0.169881
     2  H   -0.422789
     3  H   -0.719687
     4  H   -0.430624
     5  H    1.789293
     6  C   -0.038843
     7  H   -0.005146
     8  H   -0.016723
     9  H    0.006296
    10  H    0.008105
 Sum of Mulliken charges =  -0.00000
 Mulliken charges with hydrogens summed into heavy atoms:
               1
     1  C    0.046311
     6  C   -0.046311
 Electronic spatial extent (au):  <R**2>=             35.5889
 Charge=             -0.0000 electrons
 Dipole moment (field-independent basis, Debye):
    X=              0.0006    Y=             -0.0003    Z=              0.0008  Tot=              0.0010

 Test job not archived.
 1\1\GINC-CHIMERA-NODE14\SP\RM05\Gen\C2H8\CONNORNM\08-Dec-2018\0\\#T M0
 5/Gen test Massage SCF=(tight,maxcyc=40)\\M05 opt\\0,1\C,0,0.,0.,0.\H,
 0,1.10515077,0.,-0.06802748\H,0,-0.40957618,0.80014938,-0.64652477\H,0
 ,-0.39036118,-0.98071632,-0.33436449\H,0,-0.3052134,0.18056694,1.04891
 673\C,0,0.,0.,3.12665697\H,0,0.26223189,-0.90826006,2.55021612\H,0,0.9
 2323347,0.55768661,3.37687999\H,0,-0.66641535,0.64285831,2.51952459\H,
 0,-0.51905001,-0.29228486,4.06000717\\Version=AS64L-G09RevD.01\HF=-45.
 8810678\RMSD=3.907e-09\Dipole=0.0002257,-0.0001,0.0003259\Quadrupole=0
 .0003499,-0.0001001,-0.0002499,-0.0000758,-0.0000204,-0.0001587\PG=C01
  [X(C2H8)]\\@


 The chemist is a guest at the physicist's table and
 frequently dines well.
                   -- Richard Bersohn
 Job cpu time:       0 days  0 hours 19 minutes 35.0 seconds.
 File lengths (MBytes):  RWF=     41 Int=      0 D2E=      0 Chk=      4 Scr=      1
 Normal termination of Gaussian 09 at Sat Dec  8 13:54:42 2018.
